# vtk DataFile Version 2.0
DGS printing
ASCII
DATASET UNSTRUCTURED_GRID
POINTS  120  floats
21.25646 20.90860 20.10419 21.24431 20.90860 20.09696 21.25154 20.90860 20.08481 
21.26369 20.90860 20.09204 21.25646 19.90860 20.10419 21.24431 19.90860 20.09696 
21.25154 19.90860 20.08481 21.26369 19.90860 20.09204 21.24889 20.90860 20.10310 
21.24540 20.90860 20.08939 21.25911 20.90860 20.08590 21.26260 20.90860 20.09961 
21.24889 19.90860 20.10310 21.24540 19.90860 20.08939 21.25911 19.90860 20.08590 
21.26260 19.90860 20.09961 21.25646 20.40860 20.10419 21.24431 20.40860 20.09696 
21.25154 20.40860 20.08481 21.26369 20.40860 20.09204 21.26260 20.40860 20.09961 
21.24540 20.40860 20.08939 21.24889 20.40860 20.10310 21.25911 20.40860 20.08590 
21.26439 21.90860 20.12264 21.22586 21.90860 20.10489 21.24361 21.90860 20.06636 
21.28214 21.90860 20.08411 21.26439 20.90860 20.12264 21.22586 20.90860 20.10489 
21.24361 20.90860 20.06636 21.28214 20.90860 20.08411 21.24145 21.90860 20.12175 
21.22675 21.90860 20.08195 21.26655 21.90860 20.06725 21.28125 21.90860 20.10705 
21.24145 20.90860 20.12175 21.22675 20.90860 20.08195 21.26655 20.90860 20.06725 
21.28125 20.90860 20.10705 21.26439 21.40860 20.12264 21.22586 21.40860 20.10489 
21.24361 21.40860 20.06636 21.28214 21.40860 20.08411 21.28125 21.40860 20.10705 
21.22675 21.40860 20.08195 21.24145 21.40860 20.12175 21.26655 21.40860 20.06725 
21.28431 22.90860 20.21061 21.13789 22.90860 20.12481 21.22369 22.90860 19.97839 
21.37011 22.90860 20.06419 21.28431 21.90860 20.21061 21.13789 21.90860 20.12481 
21.22369 21.90860 19.97839 21.37011 21.90860 20.06419 21.19333 22.90860 20.19803 
21.15047 22.90860 20.03383 21.31467 22.90860 19.99097 21.35753 22.90860 20.15517 
21.19333 21.90860 20.19803 21.15047 21.90860 20.03383 21.31467 21.90860 19.99097 
21.35753 21.90860 20.15517 21.28431 22.40860 20.21061 21.13789 22.40860 20.12481 
21.22369 22.40860 19.97839 21.37011 22.40860 20.06419 21.35753 22.40860 20.15517 
21.15047 22.40860 20.03383 21.19333 22.40860 20.19803 21.31467 22.40860 19.99097 
21.71530 23.90860 20.98175 20.36675 23.90860 20.55580 20.79270 23.90860 19.20725 
22.14125 23.90860 19.63320 21.71530 22.90860 20.98175 20.36675 22.90860 20.55580 
20.79270 22.90860 19.20725 22.14125 22.90860 19.63320 20.95281 23.90860 21.04806 
20.30044 23.90860 19.79331 21.55519 23.90860 19.14094 22.20756 23.90860 20.39569 
20.95281 22.90860 21.04806 20.30044 22.90860 19.79331 21.55519 22.90860 19.14094 
22.20756 22.90860 20.39569 21.71530 23.40860 20.98175 20.36675 23.40860 20.55580 
20.79270 23.40860 19.20725 22.14125 23.40860 19.63320 22.20756 23.40860 20.39569 
20.30044 23.40860 19.79331 20.95281 23.40860 21.04806 21.55519 23.40860 19.14094 
21.27308 26.90860 20.14072 21.20778 26.90860 20.11358 21.23492 26.90860 20.04828 
21.30022 26.90860 20.07542 21.27308 23.90860 20.14072 21.20778 23.90860 20.11358 
21.23492 23.90860 20.04828 21.30022 23.90860 20.07542 21.23481 26.90860 20.14067 
21.20783 26.90860 20.07531 21.27319 26.90860 20.04833 21.30017 26.90860 20.11369 
21.23481 23.90860 20.14067 21.20783 23.90860 20.07531 21.27319 23.90860 20.04833 
21.30017 23.90860 20.11369 21.27308 25.40860 20.14072 21.20778 25.40860 20.11358 
21.23492 25.40860 20.04828 21.30022 25.40860 20.07542 21.30017 25.40860 20.11369 
21.20783 25.40860 20.07531 21.23481 25.40860 20.14067 21.27319 25.40860 20.04833 
CELLS  5   125
24 0 1 2 3 4 5 6 7 8 9 10 11 12 13 14 15 16 17 18 19 20 21 22 23
24 24 25 26 27 28 29 30 31 32 33 34 35 36 37 38 39 40 41 42 43 44 45 46 47
24 48 49 50 51 52 53 54 55 56 57 58 59 60 61 62 63 64 65 66 67 68 69 70 71
24 72 73 74 75 76 77 78 79 80 81 82 83 84 85 86 87 88 89 90 91 92 93 94 95
24 96 97 98 99 100 101 102 103 104 105 106 107 108 109 110 111 112 113 114 115 116 117 118 119
CELL_TYPES  5 
33
33
33
33
33
CELL_DATA  5 
SCALARS node_id int 1 
LOOKUP_TABLE default
1
2
3
4
5
SCALARS average_vol_activity_bq_m3 double 1 
LOOKUP_TABLE default
9.84970e+01
8.48824e+01
1.66670e+01
3.06684e-03
0.00000e+00
SCALARS total_activity_bq double 1 
LOOKUP_TABLE default
3.09437e-02
2.39999e-01
7.53996e-01
9.63474e-03
0.00000e+00
SCALARS mc_error double 1 
LOOKUP_TABLE default
0.00000
0.00000
0.00000
0.00000
0.00000
