# vtk DataFile Version 2.0
DGS printing
ASCII
DATASET UNSTRUCTURED_GRID
POINTS  120  floats
21.26194 20.90860 20.10058 21.24792 20.90860 20.10244 21.24606 20.90860 20.08842 
21.26008 20.90860 20.08656 21.26194 19.90860 20.10058 21.24792 19.90860 20.10244 
21.24606 19.90860 20.08842 21.26008 19.90860 20.08656 21.25531 20.90860 20.10441 
21.24409 20.90860 20.09581 21.25269 20.90860 20.08459 21.26391 20.90860 20.09319 
21.25531 19.90860 20.10441 21.24409 19.90860 20.09581 21.25269 19.90860 20.08459 
21.26391 19.90860 20.09319 21.26194 20.40860 20.10058 21.24792 20.40860 20.10244 
21.24606 20.40860 20.08842 21.26008 20.40860 20.08656 21.26391 20.40860 20.09319 
21.24409 20.40860 20.09581 21.25531 20.40860 20.10441 21.25269 20.40860 20.08459 
21.28318 21.90860 20.10145 21.24705 21.90860 20.12368 21.22482 21.90860 20.08755 
21.26095 21.90860 20.06532 21.28318 20.90860 20.10145 21.24705 20.90860 20.12368 
21.22482 20.90860 20.08755 21.26095 20.90860 20.06532 21.26972 21.90860 20.12005 
21.22845 21.90860 20.11022 21.23828 21.90860 20.06895 21.27955 21.90860 20.07878 
21.26972 20.90860 20.12005 21.22845 20.90860 20.11022 21.23828 20.90860 20.06895 
21.27955 20.90860 20.07878 21.28318 21.40860 20.10145 21.24705 21.40860 20.12368 
21.22482 21.40860 20.08755 21.26095 21.40860 20.06532 21.27955 21.40860 20.07878 
21.22845 21.40860 20.11022 21.26972 21.40860 20.12005 21.23828 21.40860 20.06895 
21.33953 22.90860 20.17867 21.16983 22.90860 20.18003 21.16847 22.90860 20.01033 
21.33817 22.90860 20.00897 21.33953 21.90860 20.17867 21.16983 21.90860 20.18003 
21.16847 21.90860 20.01033 21.33817 21.90860 20.00897 21.25496 22.90860 20.21450 
21.13400 22.90860 20.09546 21.25304 22.90860 19.97450 21.37400 22.90860 20.09354 
21.25496 21.90860 20.21450 21.13400 21.90860 20.09546 21.25304 21.90860 19.97450 
21.37400 21.90860 20.09354 21.33953 22.40860 20.17867 21.16983 22.40860 20.18003 
21.16847 22.40860 20.01033 21.33817 22.40860 20.00897 21.37400 22.40860 20.09354 
21.13400 22.40860 20.09546 21.25496 22.40860 20.21450 21.25304 22.40860 19.97450 
22.20138 23.90860 20.41460 20.93390 23.90860 21.04188 20.30662 23.90860 19.77440 
21.57410 23.90860 19.14712 22.20138 22.90860 20.41460 20.93390 22.90860 21.04188 
20.30662 22.90860 19.77440 21.57410 22.90860 19.14712 21.69755 23.90860 20.99075 
20.35775 23.90860 20.53805 20.81045 23.90860 19.19825 22.15025 23.90860 19.65095 
21.69755 22.90860 20.99075 20.35775 22.90860 20.53805 20.81045 22.90860 19.19825 
22.15025 22.90860 19.65095 22.20138 23.40860 20.41460 20.93390 23.40860 21.04188 
20.30662 23.40860 19.77440 21.57410 23.40860 19.14712 22.15025 23.40860 19.65095 
20.35775 23.40860 20.53805 21.69755 23.40860 20.99075 20.81045 23.40860 19.19825 
21.29152 26.90860 20.12754 21.22096 26.90860 20.13202 21.21648 26.90860 20.06146 
21.28704 26.90860 20.05698 21.29152 23.90860 20.12754 21.22096 23.90860 20.13202 
21.21648 23.90860 20.06146 21.28704 23.90860 20.05698 21.25717 26.90860 20.14440 
21.20410 26.90860 20.09767 21.25083 26.90860 20.04460 21.30390 26.90860 20.09133 
21.25717 23.90860 20.14440 21.20410 23.90860 20.09767 21.25083 23.90860 20.04460 
21.30390 23.90860 20.09133 21.29152 25.40860 20.12754 21.22096 25.40860 20.13202 
21.21648 25.40860 20.06146 21.28704 25.40860 20.05698 21.30390 25.40860 20.09133 
21.20410 25.40860 20.09767 21.25717 25.40860 20.14440 21.25083 25.40860 20.04460 
CELLS  5   125
24 0 1 2 3 4 5 6 7 8 9 10 11 12 13 14 15 16 17 18 19 20 21 22 23
24 24 25 26 27 28 29 30 31 32 33 34 35 36 37 38 39 40 41 42 43 44 45 46 47
24 48 49 50 51 52 53 54 55 56 57 58 59 60 61 62 63 64 65 66 67 68 69 70 71
24 72 73 74 75 76 77 78 79 80 81 82 83 84 85 86 87 88 89 90 91 92 93 94 95
24 96 97 98 99 100 101 102 103 104 105 106 107 108 109 110 111 112 113 114 115 116 117 118 119
CELL_TYPES  5 
33
33
33
33
33
CELL_DATA  5 
SCALARS average_vol_activity_bq_m3 double 1 
LOOKUP_TABLE default
98.49695
84.88244
16.66699
0.00307
0.00000
SCALARS total_activity_bq double 1 
LOOKUP_TABLE default
0.03094
0.24000
0.75400
0.00963
0.00000
SCALARS mc_error double 1 
LOOKUP_TABLE default
0.00000
0.00000
0.00000
0.00000
0.00000
