# vtk DataFile Version 2.0
DGS printing
ASCII
DATASET UNSTRUCTURED_GRID
POINTS  120  floats
21.26160 20.90860 20.10100 21.24750 20.90860 20.10210 21.24640 20.90860 20.08800 
21.26050 20.90860 20.08690 21.26160 19.90860 20.10100 21.24750 19.90860 20.10210 
21.24640 19.90860 20.08800 21.26050 19.90860 20.08690 21.25478 20.90860 20.10447 
21.24403 20.90860 20.09528 21.25322 20.90860 20.08453 21.26397 20.90860 20.09372 
21.25478 19.90860 20.10447 21.24403 19.90860 20.09528 21.25322 19.90860 20.08453 
21.26397 19.90860 20.09372 21.26160 20.40860 20.10100 21.24750 20.40860 20.10210 
21.24640 20.40860 20.08800 21.26050 20.40860 20.08690 21.26397 20.40860 20.09372 
21.24403 20.40860 20.09528 21.25478 20.40860 20.10447 21.25322 20.40860 20.08453 
21.28307 21.90860 20.10191 21.24659 21.90860 20.12357 21.22493 21.90860 20.08709 
21.26141 21.90860 20.06543 21.28307 20.90860 20.10191 21.24659 20.90860 20.12357 
21.22493 20.90860 20.08709 21.26141 20.90860 20.06543 21.26932 21.90860 20.12030 
21.22820 21.90860 20.10982 21.23868 21.90860 20.06870 21.27980 21.90860 20.07918 
21.26932 20.90860 20.12030 21.22820 20.90860 20.10982 21.23868 20.90860 20.06870 
21.27980 20.90860 20.07918 21.28307 21.40860 20.10191 21.24659 21.40860 20.12357 
21.22493 21.40860 20.08709 21.26141 21.40860 20.06543 21.27980 21.40860 20.07918 
21.22820 21.40860 20.10982 21.26932 21.40860 20.12030 21.23868 21.40860 20.06870 
21.34304 22.90860 20.17495 21.17355 22.90860 20.18354 21.16496 22.90860 20.01405 
21.33445 22.90860 20.00546 21.34304 21.90860 20.17495 21.17355 21.90860 20.18354 
21.16496 21.90860 20.01405 21.33445 21.90860 20.00546 21.26007 22.90860 20.21435 
21.13415 22.90860 20.10057 21.24793 22.90860 19.97465 21.37385 22.90860 20.08843 
21.26007 21.90860 20.21435 21.13415 21.90860 20.10057 21.24793 21.90860 19.97465 
21.37385 21.90860 20.08843 21.34304 22.40860 20.17495 21.17355 22.40860 20.18354 
21.16496 22.40860 20.01405 21.33445 22.40860 20.00546 21.37385 22.40860 20.08843 
21.13415 22.40860 20.10057 21.26007 22.40860 20.21435 21.24793 22.40860 19.97465 
22.23100 23.90860 20.30775 21.04075 23.90860 21.07150 20.27700 23.90860 19.88125 
21.46725 23.90860 19.11750 22.23100 22.90860 20.30775 21.04075 22.90860 21.07150 
20.27700 22.90860 19.88125 21.46725 22.90860 19.11750 21.79406 23.90860 20.93613 
20.41237 23.90860 20.63456 20.71394 23.90860 19.25287 22.09563 23.90860 19.55444 
21.79406 22.90860 20.93613 20.41237 22.90860 20.63456 20.71394 22.90860 19.25287 
22.09563 22.90860 19.55444 22.23100 23.40860 20.30775 21.04075 23.40860 21.07150 
20.27700 23.40860 19.88125 21.46725 23.40860 19.11750 22.09563 23.40860 19.55444 
20.41237 23.40860 20.63456 21.79406 23.40860 20.93613 20.71394 23.40860 19.25287 
21.26549 26.90860 20.14316 21.20534 26.90860 20.10599 21.24251 26.90860 20.04584 
21.30266 26.90860 20.08301 21.26549 23.90860 20.14316 21.20534 23.90860 20.10599 
21.24251 23.90860 20.04584 21.30266 23.90860 20.08301 21.22772 26.90860 20.13704 
21.21146 26.90860 20.06822 21.28028 26.90860 20.05196 21.29654 26.90860 20.12078 
21.22772 23.90860 20.13704 21.21146 23.90860 20.06822 21.28028 23.90860 20.05196 
21.29654 23.90860 20.12078 21.26549 25.40860 20.14316 21.20534 25.40860 20.10599 
21.24251 25.40860 20.04584 21.30266 25.40860 20.08301 21.29654 25.40860 20.12078 
21.21146 25.40860 20.06822 21.22772 25.40860 20.13704 21.28028 25.40860 20.05196 
CELLS  5   125
24 0 1 2 3 4 5 6 7 8 9 10 11 12 13 14 15 16 17 18 19 20 21 22 23
24 24 25 26 27 28 29 30 31 32 33 34 35 36 37 38 39 40 41 42 43 44 45 46 47
24 48 49 50 51 52 53 54 55 56 57 58 59 60 61 62 63 64 65 66 67 68 69 70 71
24 72 73 74 75 76 77 78 79 80 81 82 83 84 85 86 87 88 89 90 91 92 93 94 95
24 96 97 98 99 100 101 102 103 104 105 106 107 108 109 110 111 112 113 114 115 116 117 118 119
CELL_TYPES  5 
33
33
33
33
33
CELL_DATA  5 
SCALARS node_id int 1 
LOOKUP_TABLE default
1
2
3
4
5
SCALARS average_vol_activity_bq_m3 double 1 
LOOKUP_TABLE default
9.84970e+01
8.48824e+01
1.66670e+01
3.06684e-03
0.00000e+00
SCALARS total_activity_bq double 1 
LOOKUP_TABLE default
3.09437e-02
2.39999e-01
7.53996e-01
9.63474e-03
0.00000e+00
SCALARS mc_error double 1 
LOOKUP_TABLE default
0.00000
0.00000
0.00000
0.00000
0.00000
