# vtk DataFile Version 2.0
DGS printing
ASCII
DATASET UNSTRUCTURED_GRID
POINTS  48  floats
21.26431 20.82057 22.31800 21.29157 20.77269 22.31800 21.24369 20.74543 22.31800 
21.21643 20.79331 22.31800 21.26431 20.82057 21.59701 21.29157 20.77269 21.59701 
21.24369 20.74543 21.59701 21.21643 20.79331 21.59701 21.28786 20.80227 22.31800 
21.27327 20.74914 22.31800 21.22014 20.76373 22.31800 21.23473 20.81686 22.31800 
21.28786 20.80227 21.59701 21.27327 20.74914 21.59701 21.22014 20.76373 21.59701 
21.23473 20.81686 21.59701 21.26431 20.82057 21.95751 21.29157 20.77269 21.95751 
21.24369 20.74543 21.95751 21.21643 20.79331 21.95751 21.23473 20.81686 21.95751 
21.27327 20.74914 21.95751 21.28786 20.80227 21.95751 21.22014 20.76373 21.95751 
21.28028 20.81176 21.59700 21.28276 20.75672 21.59700 21.22772 20.75424 21.59700 
21.22524 20.80928 21.59700 21.28028 20.81176 20.87601 21.28276 20.75672 20.87601 
21.22772 20.75424 20.87601 21.22524 20.80928 20.87601 21.29292 20.78475 21.59700 
21.25575 20.74408 21.59700 21.21508 20.78125 21.59700 21.25225 20.82192 21.59700 
21.29292 20.78475 20.87601 21.25575 20.74408 20.87601 21.21508 20.78125 20.87601 
21.25225 20.82192 20.87601 21.28028 20.81176 21.23651 21.28276 20.75672 21.23651 
21.22772 20.75424 21.23651 21.22524 20.80928 21.23651 21.25225 20.82192 21.23651 
21.25575 20.74408 21.23651 21.29292 20.78475 21.23651 21.21508 20.78125 21.23651 
CELLS  2   50
24 0 1 2 3 4 5 6 7 8 9 10 11 12 13 14 15 16 17 18 19 20 21 22 23
24 24 25 26 27 28 29 30 31 32 33 34 35 36 37 38 39 40 41 42 43 44 45 46 47
CELL_TYPES  2 
33
33
CELL_DATA  2 
SCALARS average_vol_activity_bq_m3 double 1 
LOOKUP_TABLE default
60.46326
0.00000
SCALARS total_activity_bq double 1 
LOOKUP_TABLE default
0.20788
0.00000
SCALARS mc_error double 1 
LOOKUP_TABLE default
0.00000
0.00000
