# vtk DataFile Version 2.0
DGS printing
ASCII
DATASET UNSTRUCTURED_GRID
POINTS  48  floats
21.27062 20.81824 22.31800 21.28924 20.76638 22.31800 21.23738 20.74776 22.31800 
21.21876 20.79962 22.31800 21.27062 20.81824 21.59701 21.28924 20.76638 21.59701 
21.23738 20.74776 21.59701 21.21876 20.79962 21.59701 21.29067 20.79617 22.31800 
21.26717 20.74633 22.31800 21.21733 20.76983 22.31800 21.24083 20.81967 22.31800 
21.29067 20.79617 21.59701 21.26717 20.74633 21.59701 21.21733 20.76983 21.59701 
21.24083 20.81967 21.59701 21.27062 20.81824 21.95751 21.28924 20.76638 21.95751 
21.23738 20.74776 21.95751 21.21876 20.79962 21.95751 21.24083 20.81967 21.95751 
21.26717 20.74633 21.95751 21.29067 20.79617 21.95751 21.21733 20.76983 21.95751 
21.29055 20.79650 21.59700 21.26750 20.74645 21.59700 21.21745 20.76950 21.59700 
21.24050 20.81955 21.59700 21.29055 20.79650 20.87601 21.26750 20.74645 20.87601 
21.21745 20.76950 20.87601 21.24050 20.81955 20.87601 21.28939 20.76670 21.59700 
21.23770 20.74761 21.59700 21.21861 20.79930 21.59700 21.27030 20.81839 21.59700 
21.28939 20.76670 20.87601 21.23770 20.74761 20.87601 21.21861 20.79930 20.87601 
21.27030 20.81839 20.87601 21.29055 20.79650 21.23651 21.26750 20.74645 21.23651 
21.21745 20.76950 21.23651 21.24050 20.81955 21.23651 21.27030 20.81839 21.23651 
21.23770 20.74761 21.23651 21.28939 20.76670 21.23651 21.21861 20.79930 21.23651 
CELLS  2   50
24 0 1 2 3 4 5 6 7 8 9 10 11 12 13 14 15 16 17 18 19 20 21 22 23
24 24 25 26 27 28 29 30 31 32 33 34 35 36 37 38 39 40 41 42 43 44 45 46 47
CELL_TYPES  2 
33
33
CELL_DATA  2 
SCALARS average_vol_activity_bq_m3 double 1 
LOOKUP_TABLE default
99.20422
97.62953
SCALARS total_activity_bq double 1 
LOOKUP_TABLE default
0.34107
0.33566
SCALARS mc_error double 1 
LOOKUP_TABLE default
0.00000
0.00000
