# Selection : patch(face14)
# Faces  :    104
# Area   :    1.506170e-04
# Time        	sum(Td)
0             	0.000000e+00
32            	0.000000e+00
