# vtk DataFile Version 2.0
DGS printing
ASCII
DATASET UNSTRUCTURED_GRID
POINTS  240  floats
21.25477 20.82195 22.31800 21.29295 20.78223 22.31800 21.25323 20.74405 22.31800 
21.21505 20.78377 22.31800 21.25477 20.82195 21.59701 21.29295 20.78223 21.59701 
21.25323 20.74405 21.59701 21.21505 20.78377 21.59701 21.28209 20.81000 22.31800 
21.28100 20.75491 22.31800 21.22591 20.75600 22.31800 21.22700 20.81109 22.31800 
21.28209 20.81000 21.59701 21.28100 20.75491 21.59701 21.22591 20.75600 21.59701 
21.22700 20.81109 21.59701 21.25477 20.82195 21.95751 21.29295 20.78223 21.95751 
21.25323 20.74405 21.95751 21.21505 20.78377 21.95751 21.22700 20.81109 21.95751 
21.28100 20.75491 21.95751 21.28209 20.81000 21.95751 21.22591 20.75600 21.95751 
21.26063 20.82139 21.59700 21.29239 20.77637 21.59700 21.24737 20.74461 21.59700 
21.21561 20.78963 21.59700 21.26063 20.82139 20.87601 21.29239 20.77637 20.87601 
21.24737 20.74461 20.87601 21.21561 20.78963 20.87601 21.28583 20.80546 21.59700 
21.27646 20.75117 21.59700 21.22217 20.76054 21.59700 21.23154 20.81483 21.59700 
21.28583 20.80546 20.87601 21.27646 20.75117 20.87601 21.22217 20.76054 20.87601 
21.23154 20.81483 20.87601 21.26063 20.82139 21.23651 21.29239 20.77637 21.23651 
21.24737 20.74461 21.23651 21.21561 20.78963 21.23651 21.23154 20.81483 21.23651 
21.27646 20.75117 21.23651 21.28583 20.80546 21.23651 21.22217 20.76054 21.23651 
21.28855 19.80100 20.81800 21.27200 19.74845 20.81800 21.21945 19.76500 20.81800 
21.23600 19.81755 20.81800 21.28855 19.80100 19.37603 21.27200 19.74845 19.37603 
21.21945 19.76500 19.37603 21.23600 19.81755 19.37603 21.29116 19.77129 20.81800 
21.24229 19.74584 20.81800 21.21684 19.79471 20.81800 21.26571 19.82016 20.81800 
21.29116 19.77129 19.37603 21.24229 19.74584 19.37603 21.21684 19.79471 19.37603 
21.26571 19.82016 19.37603 21.28855 19.80100 20.09702 21.27200 19.74845 20.09702 
21.21945 19.76500 20.09702 21.23600 19.81755 20.09702 21.26571 19.82016 20.09702 
21.24229 19.74584 20.09702 21.29116 19.77129 20.09702 21.21684 19.79471 20.09702 
21.28519 20.80635 19.37600 21.23065 20.81419 19.37600 21.22281 20.75965 19.37600 
21.27735 20.75181 19.37600 21.28519 20.80635 20.81797 21.23065 20.81419 20.81797 
21.22281 20.75965 20.81797 21.27735 20.75181 20.81797 21.25954 20.82156 19.37600 
21.21544 20.78854 19.37600 21.24846 20.74444 19.37600 21.29256 20.77746 19.37600 
21.25954 20.82156 20.81797 21.21544 20.78854 20.81797 21.24846 20.74444 20.81797 
21.29256 20.77746 20.81797 21.28519 20.80635 20.09698 21.23065 20.81419 20.09698 
21.22281 20.75965 20.09698 21.27735 20.75181 20.09698 21.29256 20.77746 20.09698 
21.21544 20.78854 20.09698 21.25954 20.82156 20.09698 21.24846 20.74444 20.09698 
21.27762 20.81399 17.93410 21.22301 20.80662 17.93410 21.23038 20.75201 17.93410 
21.28499 20.75938 17.93410 21.27762 20.81399 19.37607 21.22301 20.80662 19.37607 
21.23038 20.75201 19.37607 21.28499 20.75938 19.37607 21.24879 20.82161 17.93410 
21.21539 20.77779 17.93410 21.25921 20.74439 17.93410 21.29261 20.78821 17.93410 
21.24879 20.82161 19.37607 21.21539 20.77779 19.37607 21.25921 20.74439 19.37607 
21.29261 20.78821 19.37607 21.27762 20.81399 18.65508 21.22301 20.80662 18.65508 
21.23038 20.75201 18.65508 21.28499 20.75938 18.65508 21.29261 20.78821 18.65508 
21.21539 20.77779 18.65508 21.24879 20.82161 18.65508 21.25921 20.74439 18.65508 
21.28378 21.80812 19.37600 21.22888 21.81278 19.37600 21.22422 21.75788 19.37600 
21.27912 21.75322 19.37600 21.28378 21.80812 20.81797 21.22888 21.81278 20.81797 
21.22422 21.75788 20.81797 21.27912 21.75322 20.81797 21.25729 21.82182 19.37600 
21.21518 21.78629 19.37600 21.25071 21.74418 19.37600 21.29282 21.77971 19.37600 
21.25729 21.82182 20.81797 21.21518 21.78629 20.81797 21.25071 21.74418 20.81797 
21.29282 21.77971 20.81797 21.28378 21.80812 20.09698 21.22888 21.81278 20.09698 
21.22422 21.75788 20.09698 21.27912 21.75322 20.09698 21.29282 21.77971 20.09698 
21.21518 21.78629 20.09698 21.25729 21.82182 20.09698 21.25071 21.74418 20.09698 
21.26638 22.81994 19.37600 21.21706 22.79538 19.37600 21.24162 22.74606 19.37600 
21.29094 22.77062 19.37600 21.26638 22.81994 20.81797 21.21706 22.79538 20.81797 
21.24162 22.74606 20.81797 21.29094 22.77062 20.81797 21.23663 22.81787 19.37600 
21.21913 22.76563 19.37600 21.27137 22.74813 19.37600 21.28887 22.80037 19.37600 
21.23663 22.81787 20.81797 21.21913 22.76563 20.81797 21.27137 22.74813 20.81797 
21.28887 22.80037 20.81797 21.26638 22.81994 20.09698 21.21706 22.79538 20.09698 
21.24162 22.74606 20.09698 21.29094 22.77062 20.09698 21.28887 22.80037 20.09698 
21.21913 22.76563 20.09698 21.23663 22.81787 20.09698 21.27137 22.74813 20.09698 
21.27375 23.81658 19.37600 21.22042 23.80275 19.37600 21.23425 23.74942 19.37600 
21.28758 23.76325 19.37600 21.27375 23.81658 22.31797 21.22042 23.80275 22.31797 
21.23425 23.74942 22.31797 21.28758 23.76325 22.31797 21.24422 23.82071 19.37600 
21.21629 23.77322 19.37600 21.26378 23.74529 19.37600 21.29171 23.79278 19.37600 
21.24422 23.82071 22.31797 21.21629 23.77322 22.31797 21.26378 23.74529 22.31797 
21.29171 23.79278 22.31797 21.27375 23.81658 20.84698 21.22042 23.80275 20.84698 
21.23425 23.74942 20.84698 21.28758 23.76325 20.84698 21.29171 23.79278 20.84698 
21.21629 23.77322 20.84698 21.24422 23.82071 20.84698 21.26378 23.74529 20.84698 
21.28980 20.79838 16.37600 21.23862 20.81880 16.37600 21.21820 20.76762 16.37600 
21.26938 20.74720 16.37600 21.28980 20.79838 17.81797 21.23862 20.81880 17.81797 
21.21820 20.76762 17.81797 21.26938 20.74720 17.81797 21.26844 20.81919 16.37600 
21.21781 20.79744 16.37600 21.23956 20.74681 16.37600 21.29019 20.76856 16.37600 
21.26844 20.81919 17.81797 21.21781 20.79744 17.81797 21.23956 20.74681 17.81797 
21.29019 20.76856 17.81797 21.28980 20.79838 17.09698 21.23862 20.81880 17.09698 
21.21820 20.76762 17.09698 21.26938 20.74720 17.09698 21.29019 20.76856 17.09698 
21.21781 20.79744 17.09698 21.26844 20.81919 17.09698 21.23956 20.74681 17.09698 
21.27218 23.31746 17.87600 21.21954 23.30118 17.87600 21.23582 23.24854 17.87600 
21.28846 23.26482 17.87600 21.27218 23.31746 19.31797 21.21954 23.30118 19.31797 
21.23582 23.24854 19.31797 21.28846 23.26482 19.31797 21.24249 23.32022 17.87600 
21.21678 23.27149 17.87600 21.26551 23.24578 17.87600 21.29122 23.29451 17.87600 
21.24249 23.32022 19.31797 21.21678 23.27149 19.31797 21.26551 23.24578 19.31797 
21.29122 23.29451 19.31797 21.27218 23.31746 18.59698 21.21954 23.30118 18.59698 
21.23582 23.24854 18.59698 21.28846 23.26482 18.59698 21.29122 23.29451 18.59698 
21.21678 23.27149 18.59698 21.24249 23.32022 18.59698 21.26551 23.24578 18.59698 
CELLS  10   250
24 0 1 2 3 4 5 6 7 8 9 10 11 12 13 14 15 16 17 18 19 20 21 22 23
24 24 25 26 27 28 29 30 31 32 33 34 35 36 37 38 39 40 41 42 43 44 45 46 47
24 48 49 50 51 52 53 54 55 56 57 58 59 60 61 62 63 64 65 66 67 68 69 70 71
24 72 73 74 75 76 77 78 79 80 81 82 83 84 85 86 87 88 89 90 91 92 93 94 95
24 96 97 98 99 100 101 102 103 104 105 106 107 108 109 110 111 112 113 114 115 116 117 118 119
24 120 121 122 123 124 125 126 127 128 129 130 131 132 133 134 135 136 137 138 139 140 141 142 143
24 144 145 146 147 148 149 150 151 152 153 154 155 156 157 158 159 160 161 162 163 164 165 166 167
24 168 169 170 171 172 173 174 175 176 177 178 179 180 181 182 183 184 185 186 187 188 189 190 191
24 192 193 194 195 196 197 198 199 200 201 202 203 204 205 206 207 208 209 210 211 212 213 214 215
24 216 217 218 219 220 221 222 223 224 225 226 227 228 229 230 231 232 233 234 235 236 237 238 239
CELL_TYPES  10 
33
33
33
33
33
33
33
33
33
33
CELL_DATA  10 
SCALARS node_id int 1 
LOOKUP_TABLE default
1
2
3
4
5
6
7
8
9
10
SCALARS average_vol_activity_bq_m3 double 1 
LOOKUP_TABLE default
1.23078e+01
9.40648e+01
1.55885e+02
1.69094e+02
1.61320e+02
1.27854e+02
1.48139e+02
5.61421e+02
1.48192e+02
4.46059e+02
SCALARS total_activity_bq double 1 
LOOKUP_TABLE default
4.23153e-02
3.23404e-01
1.07188e+00
1.16271e+00
1.10926e+00
8.79144e-01
1.01862e+00
7.87617e+00
1.01899e+00
3.06716e+00
SCALARS mc_error double 1 
LOOKUP_TABLE default
0.00000
0.00000
0.00000
0.00000
0.00000
0.00000
0.00000
0.00000
0.00000
0.00000
