# vtk DataFile Version 2.0
DGS printing
ASCII
DATASET UNSTRUCTURED_GRID
POINTS  240  floats
21.28845 20.80119 22.31800 21.27219 20.74855 22.31800 21.21955 20.76481 22.31800 
21.23581 20.81745 22.31800 21.28845 20.80119 21.59701 21.27219 20.74855 21.59701 
21.21955 20.76481 21.59701 21.23581 20.81745 21.59701 21.29122 20.77150 22.31800 
21.24250 20.74578 22.31800 21.21678 20.79450 22.31800 21.26550 20.82022 22.31800 
21.29122 20.77150 21.59701 21.24250 20.74578 21.59701 21.21678 20.79450 21.59701 
21.26550 20.82022 21.59701 21.28845 20.80119 21.95751 21.27219 20.74855 21.95751 
21.21955 20.76481 21.95751 21.23581 20.81745 21.95751 21.26550 20.82022 21.95751 
21.24250 20.74578 21.95751 21.29122 20.77150 21.95751 21.21678 20.79450 21.95751 
21.28604 20.80517 21.59700 21.27617 20.75096 21.59700 21.22196 20.76083 21.59700 
21.23183 20.81504 21.59700 21.28604 20.80517 20.87601 21.27617 20.75096 20.87601 
21.22196 20.76083 20.87601 21.23183 20.81504 20.87601 21.29233 20.77602 21.59700 
21.24702 20.74467 21.59700 21.21567 20.78998 21.59700 21.26098 20.82133 21.59700 
21.29233 20.77602 20.87601 21.24702 20.74467 20.87601 21.21567 20.78998 20.87601 
21.26098 20.82133 20.87601 21.28604 20.80517 21.23651 21.27617 20.75096 21.23651 
21.22196 20.76083 21.23651 21.23183 20.81504 21.23651 21.26098 20.82133 21.23651 
21.24702 20.74467 21.23651 21.29233 20.77602 21.23651 21.21567 20.78998 21.23651 
21.29296 19.78326 20.81800 21.25426 19.74404 20.81800 21.21504 19.78274 20.81800 
21.25374 19.82196 20.81800 21.29296 19.78326 19.37603 21.25426 19.74404 19.37603 
21.21504 19.78274 19.37603 21.25374 19.82196 19.37603 21.28173 19.75564 20.81800 
21.22664 19.75527 20.81800 21.22627 19.81036 20.81800 21.28136 19.81073 20.81800 
21.28173 19.75564 19.37603 21.22664 19.75527 19.37603 21.22627 19.81036 19.37603 
21.28136 19.81073 19.37603 21.29296 19.78326 20.09702 21.25426 19.74404 20.09702 
21.21504 19.78274 20.09702 21.25374 19.82196 20.09702 21.28136 19.81073 20.09702 
21.22664 19.75527 20.09702 21.28173 19.75564 20.09702 21.22627 19.81036 20.09702 
21.28756 20.80280 19.37600 21.23420 20.81656 19.37600 21.22044 20.76320 19.37600 
21.27380 20.74944 19.37600 21.28756 20.80280 20.81797 21.23420 20.81656 20.81797 
21.22044 20.76320 20.81797 21.27380 20.74944 20.81797 21.26373 20.82073 19.37600 
21.21627 20.79273 19.37600 21.24427 20.74527 19.37600 21.29173 20.77327 19.37600 
21.26373 20.82073 20.81797 21.21627 20.79273 20.81797 21.24427 20.74527 20.81797 
21.29173 20.77327 20.81797 21.28756 20.80280 20.09698 21.23420 20.81656 20.09698 
21.22044 20.76320 20.09698 21.27380 20.74944 20.09698 21.29173 20.77327 20.09698 
21.21627 20.79273 20.09698 21.26373 20.82073 20.09698 21.24427 20.74527 20.09698 
21.27580 20.81529 17.93410 21.22171 20.80480 17.93410 21.23220 20.75071 17.93410 
21.28629 20.76120 17.93410 21.27580 20.81529 19.37607 21.22171 20.80480 19.37607 
21.23220 20.75071 19.37607 21.28629 20.76120 19.37607 21.24659 20.82125 17.93410 
21.21575 20.77559 17.93410 21.26141 20.74475 17.93410 21.29225 20.79041 17.93410 
21.24659 20.82125 19.37607 21.21575 20.77559 19.37607 21.26141 20.74475 19.37607 
21.29225 20.79041 19.37607 21.27580 20.81529 18.65508 21.22171 20.80480 18.65508 
21.23220 20.75071 18.65508 21.28629 20.76120 18.65508 21.29225 20.79041 18.65508 
21.21575 20.77559 18.65508 21.24659 20.82125 18.65508 21.26141 20.74475 18.65508 
21.29144 21.79378 19.37600 21.24322 21.82044 19.37600 21.21656 21.77222 19.37600 
21.26478 21.74556 19.37600 21.29144 21.79378 20.81797 21.24322 21.82044 20.81797 
21.21656 21.77222 20.81797 21.26478 21.74556 20.81797 21.27285 21.81710 19.37600 
21.21990 21.80185 19.37600 21.23515 21.74890 19.37600 21.28810 21.76415 19.37600 
21.27285 21.81710 20.81797 21.21990 21.80185 20.81797 21.23515 21.74890 20.81797 
21.28810 21.76415 20.81797 21.29144 21.79378 20.09698 21.24322 21.82044 20.09698 
21.21656 21.77222 20.09698 21.26478 21.74556 20.09698 21.28810 21.76415 20.09698 
21.21990 21.80185 20.09698 21.27285 21.81710 20.09698 21.23515 21.74890 20.09698 
21.27838 22.81339 19.37600 21.22361 22.80738 19.37600 21.22962 22.75261 19.37600 
21.28439 22.75862 19.37600 21.27838 22.81339 20.81797 21.22361 22.80738 20.81797 
21.22962 22.75261 20.81797 21.28439 22.75862 20.81797 21.24975 22.82173 19.37600 
21.21527 22.77875 19.37600 21.25825 22.74427 19.37600 21.29273 22.78725 19.37600 
21.24975 22.82173 20.81797 21.21527 22.77875 20.81797 21.25825 22.74427 20.81797 
21.29273 22.78725 20.81797 21.27838 22.81339 20.09698 21.22361 22.80738 20.09698 
21.22962 22.75261 20.09698 21.28439 22.75862 20.09698 21.29273 22.78725 20.09698 
21.21527 22.77875 20.09698 21.24975 22.82173 20.09698 21.25825 22.74427 20.09698 
21.28720 23.80338 19.37600 21.23362 23.81620 19.37600 21.22080 23.76262 19.37600 
21.27438 23.74980 19.37600 21.28720 23.80338 22.31797 21.23362 23.81620 22.31797 
21.22080 23.76262 22.31797 21.27438 23.74980 22.31797 21.26307 23.82089 19.37600 
21.21611 23.79207 19.37600 21.24493 23.74511 19.37600 21.29189 23.77393 19.37600 
21.26307 23.82089 22.31797 21.21611 23.79207 22.31797 21.24493 23.74511 22.31797 
21.29189 23.77393 22.31797 21.28720 23.80338 20.84698 21.23362 23.81620 20.84698 
21.22080 23.76262 20.84698 21.27438 23.74980 20.84698 21.29189 23.77393 20.84698 
21.21611 23.79207 20.84698 21.26307 23.82089 20.84698 21.24493 23.74511 20.84698 
21.29044 20.79679 16.37600 21.24021 20.81944 16.37600 21.21756 20.76921 16.37600 
21.26779 20.74656 16.37600 21.29044 20.79679 17.81797 21.24021 20.81944 17.81797 
21.21756 20.76921 17.81797 21.26779 20.74656 17.81797 21.27002 20.81852 16.37600 
21.21848 20.79902 16.37600 21.23798 20.74748 16.37600 21.28952 20.76698 16.37600 
21.27002 20.81852 17.81797 21.21848 20.79902 17.81797 21.23798 20.74748 17.81797 
21.28952 20.76698 17.81797 21.29044 20.79679 17.09698 21.24021 20.81944 17.09698 
21.21756 20.76921 17.09698 21.26779 20.74656 17.09698 21.28952 20.76698 17.09698 
21.21848 20.79902 17.09698 21.27002 20.81852 17.09698 21.23798 20.74748 17.09698 
21.27162 23.31775 17.87600 21.21925 23.30062 17.87600 21.23638 23.24825 17.87600 
21.28875 23.26538 17.87600 21.27162 23.31775 19.31797 21.21925 23.30062 19.31797 
21.23638 23.24825 19.31797 21.28875 23.26538 19.31797 21.24189 23.32003 17.87600 
21.21697 23.27089 17.87600 21.26611 23.24597 17.87600 21.29103 23.29511 17.87600 
21.24189 23.32003 19.31797 21.21697 23.27089 19.31797 21.26611 23.24597 19.31797 
21.29103 23.29511 19.31797 21.27162 23.31775 18.59698 21.21925 23.30062 18.59698 
21.23638 23.24825 18.59698 21.28875 23.26538 18.59698 21.29103 23.29511 18.59698 
21.21697 23.27089 18.59698 21.24189 23.32003 18.59698 21.26611 23.24597 18.59698 
CELLS  10   250
24 0 1 2 3 4 5 6 7 8 9 10 11 12 13 14 15 16 17 18 19 20 21 22 23
24 24 25 26 27 28 29 30 31 32 33 34 35 36 37 38 39 40 41 42 43 44 45 46 47
24 48 49 50 51 52 53 54 55 56 57 58 59 60 61 62 63 64 65 66 67 68 69 70 71
24 72 73 74 75 76 77 78 79 80 81 82 83 84 85 86 87 88 89 90 91 92 93 94 95
24 96 97 98 99 100 101 102 103 104 105 106 107 108 109 110 111 112 113 114 115 116 117 118 119
24 120 121 122 123 124 125 126 127 128 129 130 131 132 133 134 135 136 137 138 139 140 141 142 143
24 144 145 146 147 148 149 150 151 152 153 154 155 156 157 158 159 160 161 162 163 164 165 166 167
24 168 169 170 171 172 173 174 175 176 177 178 179 180 181 182 183 184 185 186 187 188 189 190 191
24 192 193 194 195 196 197 198 199 200 201 202 203 204 205 206 207 208 209 210 211 212 213 214 215
24 216 217 218 219 220 221 222 223 224 225 226 227 228 229 230 231 232 233 234 235 236 237 238 239
CELL_TYPES  10 
33
33
33
33
33
33
33
33
33
33
CELL_DATA  10 
SCALARS node_id int 1 
LOOKUP_TABLE default
1
2
3
4
5
6
7
8
9
10
SCALARS average_vol_activity_bq_m3 double 1 
LOOKUP_TABLE default
1.23078e+01
9.40648e+01
1.55885e+02
1.69094e+02
1.61320e+02
1.27854e+02
1.48139e+02
5.61421e+02
1.48192e+02
4.46059e+02
SCALARS total_activity_bq double 1 
LOOKUP_TABLE default
4.23153e-02
3.23404e-01
1.07188e+00
1.16271e+00
1.10926e+00
8.79144e-01
1.01862e+00
7.87617e+00
1.01899e+00
3.06716e+00
SCALARS mc_error double 1 
LOOKUP_TABLE default
0.00000
0.00000
0.00000
0.00000
0.00000
0.00000
0.00000
0.00000
0.00000
0.00000
