/*--------------------------------*- C++ -*----------------------------------*\
| =========                 |                                                 |
| \\      /  F ield         | OpenFOAM: The Open Source CFD Toolbox           |
|  \\    /   O peration     | Version:  2112                                  |
|   \\  /    A nd           | Website:  www.openfoam.com                      |
|    \\/     M anipulation  |                                                 |
\*---------------------------------------------------------------------------*/
FoamFile
{
    version     2.0;
    format      ascii;
    arch        "LSB;label=32;scalar=64";
    class       volScalarField;
    location    "1000";
    object      nut;
}
// * * * * * * * * * * * * * * * * * * * * * * * * * * * * * * * * * * * * * //

dimensions      [0 2 -1 0 0 0 0];

internalField   nonuniform List<scalar> 
111443
(
3.47480457277e-05
3.19359134201e-05
4.04769852146e-05
1.28978984416e-05
1.67307294069e-05
1.25497460534e-05
5.4439620585e-05
4.29754666044e-05
9.07414616854e-05
6.27008431084e-05
8.99062531364e-06
1.35200021417e-05
3.15185919394e-05
2.83482510502e-05
2.54531152877e-05
3.40138539723e-05
5.13679992135e-05
2.30345682533e-05
8.78269850567e-05
5.48808335824e-05
1.9763798991e-05
3.58148656484e-05
1.38627481484e-05
1.41674032687e-05
2.54154913142e-06
1.20837710381e-05
1.10467814259e-05
2.1323157906e-05
2.66898575279e-05
1.0862484867e-05
2.25703833587e-05
2.86105177658e-05
5.00415817865e-05
3.89104267069e-05
2.27868233866e-05
2.97878692626e-05
0.000152747850399
7.54687053333e-05
0.000100182264718
7.01998107133e-05
4.2355869158e-05
1.14691560802e-05
1.8053184176e-05
2.25181966218e-06
4.81138093486e-06
2.02413661486e-05
1.58343173338e-05
6.05243554835e-07
1.91780030179e-06
4.82567580231e-06
1.93779321731e-05
6.67216090483e-06
7.95879605225e-06
6.46722472622e-05
1.26706447126e-05
3.30969411325e-05
2.38823016369e-05
2.56950919311e-05
2.69972245431e-05
3.60773879509e-05
7.69971880717e-05
4.25108363745e-05
6.55489819934e-05
4.11353193027e-05
2.4790785686e-05
0.000281241391693
6.61151169125e-05
0.000163755752621
8.93155285459e-05
4.46374296615e-05
7.41955517933e-05
2.76489633228e-05
1.26402723774e-05
1.54894909159e-05
1.78524697552e-05
3.01709933751e-06
4.69395369181e-07
9.78671030763e-07
4.56088304393e-06
4.48795115254e-06
1.87163206499e-05
8.92968588442e-06
2.84544136728e-07
4.39152131231e-07
9.95163587452e-07
3.19514055032e-06
4.82494578202e-06
1.06113396693e-05
9.40777783917e-06
2.16272131261e-05
2.80723126322e-05
7.43631218374e-05
2.59814928152e-05
1.4988119643e-05
2.87500714312e-05
1.34136901895e-05
3.08033346363e-05
3.7489875988e-05
4.3440008548e-05
4.505638043e-05
5.13066853878e-05
7.86295066223e-05
0.000158256833862
2.8157421242e-05
4.50904823683e-05
0.000105213371491
4.88640444584e-05
0.000208418321893
6.9701519718e-05
6.50976374112e-05
0.000403778700979
0.000123987750293
7.0055619265e-05
0.000142172188517
6.1079137957e-05
0.0001414395575
6.76134265302e-05
1.6987354863e-05
2.32955622207e-06
1.25714066616e-05
4.72752424456e-06
1.1731683193e-05
2.3564360321e-05
6.5950838578e-07
2.32427748149e-07
2.72266576099e-07
9.11448281418e-07
8.83975710435e-07
3.70972226936e-06
2.72467411526e-06
1.7709410897e-05
1.25054551403e-05
9.73074039387e-06
2.49882494502e-07
2.22812045402e-07
2.72588820602e-07
6.64089553078e-07
1.03002543977e-06
2.37426815427e-06
2.07229070925e-06
4.1306159714e-06
1.75831302388e-05
9.11844325637e-06
8.76642822757e-06
7.22479166782e-05
5.61452109087e-06
2.06507717758e-05
4.78758460588e-05
3.15696368288e-05
3.13383001939e-05
2.99533464801e-05
6.09132170233e-05
6.28741100221e-05
1.94293044503e-05
6.34503845741e-05
3.8809617275e-05
0.000118093653007
0.000107108402456
6.40821254523e-05
3.88459814252e-05
3.87858788593e-05
4.15008198195e-05
0.000208824797962
8.11841990054e-05
5.80057550336e-05
8.92325105668e-05
0.000295687222118
0.000125827280683
9.85406633841e-05
5.58610435018e-05
0.00019170245513
7.4850718513e-05
7.54447944435e-05
0.00012245550541
6.2118787243e-05
6.23396044734e-05
4.66467679644e-07
2.36976244272e-06
9.82731260117e-07
1.03770959058e-05
4.6227202474e-06
3.67465470854e-05
1.49525249388e-05
2.94783352493e-07
1.79719581543e-07
1.18550829167e-07
2.8179201587e-07
2.74538025907e-07
7.71411831449e-07
6.21603506776e-07
3.48938601468e-06
3.39977713425e-06
2.70132485478e-06
1.54763600884e-05
1.39944173868e-05
6.65006597335e-06
1.64846768595e-07
1.12320086159e-07
2.92662584153e-07
2.92174991471e-07
4.79510395545e-07
5.44962358477e-07
9.04478311518e-07
3.08868564328e-06
2.10936992847e-06
4.33703294416e-06
7.17261246111e-06
7.67438585002e-06
1.18690214775e-05
1.00583395822e-05
1.09044714319e-05
9.64958989046e-06
1.69474423828e-05
1.68825872065e-05
1.60129086717e-05
6.82453695207e-05
1.84481003844e-05
3.4869037321e-05
2.99452434398e-05
4.45304449999e-05
7.85420042037e-05
0.000275051126255
3.95033338026e-05
4.23936430886e-05
4.38135888504e-05
0.000117851408549
9.96802074231e-05
2.83979724914e-05
4.65539120694e-05
3.02828838869e-05
1.97294403121e-05
4.40520279018e-05
0.000296494860155
7.95164864417e-05
7.57857473121e-05
5.20989024747e-05
9.83920303476e-05
0.000141301939339
0.00013572538435
0.000131130439556
9.68285616596e-05
9.23888967947e-05
0.000142714458058
5.58578148537e-05
9.38565254209e-05
9.74521619563e-05
0.000113626983243
0.000120675729714
1.19319589112e-05
2.35739618644e-07
5.75226515114e-07
2.77364657657e-07
2.25754923751e-06
9.56353086965e-07
1.9659955234e-05
4.54010207311e-06
7.69716989226e-06
2.30068227013e-05
2.5493187281e-07
5.39389899812e-08
1.39428658056e-07
1.05975787376e-07
2.79612382986e-07
2.14291634977e-07
7.49905539459e-07
7.37405004539e-07
6.76771864575e-07
3.30055101104e-06
3.01596812656e-06
1.55732804382e-06
1.30285258846e-05
8.61564325574e-06
3.08931258556e-05
7.62338688876e-06
1.15539750983e-05
7.47395744092e-06
5.99933101059e-06
4.75416700876e-08
2.54422377586e-07
9.96459689508e-08
2.34207991909e-07
1.65091060537e-07
2.63507138908e-07
6.57736413858e-07
5.88119838781e-07
9.65564976002e-07
2.40345928649e-06
1.74420287642e-06
2.58980861219e-06
3.98548275735e-06
2.55548728714e-06
1.02231885141e-05
1.60015987284e-05
6.93297234496e-06
1.04158329271e-05
8.15603630971e-06
8.41750771799e-06
1.2272384008e-05
1.82191863133e-05
1.5898425916e-05
7.59247555033e-05
6.94445153638e-05
8.43357815913e-05
5.54073502271e-05
5.64619939012e-05
4.75994930487e-05
3.35347825747e-05
2.59203768526e-05
4.89044448669e-05
3.60404125473e-05
3.26003916965e-05
3.98441462351e-05
8.92678154467e-05
9.04945523563e-05
9.37225291317e-05
2.71086322094e-05
7.7764319869e-05
1.34692428416e-05
7.05779058216e-05
3.27495245798e-05
2.75519571676e-05
6.16053268128e-05
0.000258175905115
8.66308345628e-05
8.06675071681e-05
9.74495186707e-05
7.90910399191e-05
3.70021542036e-05
0.000329182720575
0.00011108566823
0.000570323302956
9.23698400995e-05
0.000125189920487
9.88336573208e-05
2.70050466713e-05
4.08606985054e-05
5.70750065569e-05
8.66803390777e-05
0.000197986394869
6.54527138423e-05
0.000195902903188
3.51087660741e-05
1.90084378117e-07
2.67839233763e-07
1.34947731525e-07
4.64730038799e-07
2.81390008656e-07
3.19906708582e-06
9.39734345709e-07
5.47434852403e-06
4.4596924189e-06
1.06860074786e-05
3.78742898767e-05
3.15199251078e-08
2.79649233679e-08
1.25808742309e-07
6.10654754004e-08
2.62708460073e-07
2.7565170006e-07
2.32659942227e-07
7.36574301065e-07
6.8804706947e-07
4.68983669918e-07
2.73021251297e-06
1.9448022399e-06
1.74383635156e-06
1.79821615099e-06
1.80322078089e-06
1.25520590164e-05
2.20114996624e-05
8.76065231943e-06
4.23570829666e-05
2.44271162834e-05
7.31224133783e-06
5.93944500637e-05
2.0051864932e-05
2.66481458474e-05
5.54210103013e-06
5.43447640552e-06
4.68220930911e-08
1.79089661873e-07
4.54260218408e-08
1.18538447428e-07
2.84976380216e-07
1.94059952911e-07
2.84144763264e-07
4.8985573359e-07
5.61320219261e-07
6.28147366474e-07
8.94631335159e-07
6.13129540243e-07
2.05219483592e-06
1.8399097258e-06
2.27771018831e-06
4.54331780716e-06
2.67982377945e-06
1.06603378432e-05
1.83029493112e-05
3.27607475718e-05
1.03741284989e-05
7.45040181054e-06
3.21964058125e-05
9.36590874664e-06
1.23536497475e-05
7.30920028685e-06
6.67406286187e-05
8.79527636621e-06
1.47981170417e-05
2.76232616315e-05
0.000105432902216
7.75944477715e-05
0.000141954006436
9.80999633558e-05
0.000103650507426
4.23345674032e-05
9.43983381409e-05
5.60432250656e-05
4.39767939542e-05
6.15640920442e-05
6.44784563036e-05
5.96375518566e-05
3.37651799496e-05
8.25627045201e-05
8.76637330007e-05
0.000157306114174
9.58075565128e-05
0.000192143785374
6.79535177061e-05
1.69705624321e-05
5.85206952034e-05
4.32824133082e-05
7.48723646561e-05
6.31867008782e-05
0.000312893348316
6.99012832224e-05
7.40524276519e-05
8.73288415522e-05
8.70570557691e-05
9.20165471428e-05
8.94015088901e-05
7.31052029322e-05
5.1009733392e-05
8.92602354211e-05
0.000124662300457
9.62993556562e-05
0.000315300990668
6.95171971473e-05
0.000112166651866
1.06262224985e-05
2.18195781605e-05
5.65000269175e-05
9.02314801264e-05
6.81972193022e-05
4.85860323352e-05
6.97526721614e-05
2.33588719822e-07
5.94990540204e-08
2.29859098389e-07
1.41850054477e-07
6.61419454871e-07
2.65750313283e-07
2.53827229155e-06
9.29198377913e-07
4.39441161349e-06
1.80312884961e-05
1.02978014643e-05
1.14608671389e-05
2.4211991808e-08
1.6627483468e-08
1.1769031449e-07
1.14839271416e-07
5.80667575791e-08
2.47307861142e-07
2.86612576596e-07
1.67063696099e-07
6.40990473796e-07
5.17748452156e-07
5.15497853467e-07
5.6780925972e-07
5.87333616291e-07
2.42458571552e-06
2.02569093894e-06
1.74462613683e-06
1.37180360324e-06
1.33872595519e-06
8.29891980852e-06
8.08935618087e-06
4.52744398494e-05
2.18939840487e-05
7.68097308899e-06
5.49413318461e-06
6.00400442025e-05
6.35699382928e-05
3.82262509284e-05
6.56779395647e-06
8.89601572612e-05
7.42966723456e-05
6.26853258304e-05
5.47024697549e-05
5.60843144121e-06
5.08939738377e-06
3.72463349829e-05
5.89377569555e-06
1.91537282509e-08
6.18196219482e-08
2.44474841429e-07
5.53956175954e-08
1.06634122476e-07
2.22854687529e-07
2.36980213189e-07
2.22433290562e-07
2.57997108246e-07
1.99795671077e-07
5.33917307572e-07
6.32359907371e-07
5.78627479034e-07
1.01948452274e-06
6.61399756433e-07
2.04381717755e-06
2.32385519057e-06
1.75062347611e-06
2.05540151518e-06
4.48297440141e-06
2.43246994515e-06
1.88949137667e-06
1.78150880951e-05
3.75642490778e-05
3.01035735433e-05
7.5083094008e-05
9.3334599527e-06
1.7757749656e-05
8.9582452218e-06
3.60849058448e-05
6.87344518205e-05
7.46354416615e-06
5.71303305957e-06
1.22694238016e-05
6.97621425707e-06
4.94704804474e-05
1.58034789233e-05
7.03997516577e-06
5.43410954092e-05
2.83198389897e-05
9.35611532633e-06
5.94259918622e-05
6.31276228471e-05
7.8234273687e-05
5.86324403479e-05
0.000110195955619
0.000148423308553
0.000103683287677
7.55321856356e-05
0.000103780733697
0.000146424678953
0.000112889808322
5.30608167718e-05
3.22331428091e-05
1.16750919903e-05
2.56413568825e-05
7.15022281185e-05
6.43810031284e-05
9.05357729011e-05
4.92666800418e-05
4.82133741188e-05
4.60480507145e-05
6.14979138423e-05
7.24341375736e-05
3.40465381676e-05
8.00547177183e-05
6.11389756358e-05
0.000175351182294
9.32307343562e-05
8.73133153339e-05
8.57863223013e-05
6.87339751352e-05
6.65558675149e-05
9.24644517717e-05
9.97662291594e-05
9.88282908677e-05
7.09352204233e-05
9.99485424556e-05
6.80021798364e-05
8.3740973259e-05
9.51906617022e-05
8.03284249946e-05
6.32619981101e-05
7.13294225012e-05
0.000105219265169
0.000113981689859
0.000123429107123
0.000229368548445
9.1117220261e-05
0.000125712282974
8.27602444786e-05
1.56515479357e-05
1.89139120883e-05
3.49537162275e-05
2.99137502355e-05
3.30883907348e-05
0.00021872782292
4.39142084864e-05
1.81349527008e-07
3.71495674343e-08
2.82498821906e-07
1.19944099431e-07
4.77720370955e-07
2.85786686502e-07
9.12298204438e-07
2.99340446319e-06
4.53013785914e-06
1.17330466422e-05
1.66713468492e-05
2.5504035947e-08
2.14076538695e-08
2.70461934003e-08
1.11707563435e-07
7.41678602965e-08
3.15220030503e-08
2.21878155892e-07
2.13631543276e-07
2.75598888459e-07
2.45417760642e-07
2.29369085196e-07
6.86361557393e-07
5.808517229e-07
5.68880940442e-07
5.12225852326e-07
5.12987058119e-07
2.51450678529e-06
2.63139603323e-06
1.74556933733e-06
1.33915673917e-06
1.58708052409e-06
1.41602100133e-06
1.30002761343e-06
1.66167667212e-06
2.26056598079e-05
1.28346314365e-05
8.08028356912e-06
5.70524795829e-05
1.59613519275e-05
2.12471417034e-05
8.04570079011e-06
4.65390971635e-06
8.50225450138e-05
4.68630417506e-05
6.25768522265e-05
5.6150791582e-06
0.000111171403142
2.81907494156e-05
6.21633595263e-05
5.68678784088e-06
4.71731862203e-05
5.00721223657e-06
6.20805786952e-05
2.07066341994e-05
6.42445599289e-06
1.33612044208e-08
4.67488679675e-08
1.80290985267e-07
4.22909122905e-08
7.55033036168e-08
1.151579365e-07
6.19260161409e-08
2.58832407346e-07
2.96999017118e-07
2.84507944575e-07
2.92172298697e-07
2.07099580668e-07
4.33678492971e-07
6.0960755374e-07
6.48638468965e-07
5.41902399096e-07
9.80186599819e-07
5.93687032024e-07
4.8706313225e-07
2.97920481419e-06
2.08466766078e-06
2.10536702047e-06
1.63683539029e-06
4.714537731e-06
2.73636926339e-06
1.98304737275e-06
1.19196494809e-05
6.10911586003e-05
3.75780557654e-05
4.4576088998e-05
2.99883170077e-05
8.09122289406e-06
3.52383816022e-05
3.13600502808e-05
8.32802387811e-06
6.82299500901e-05
6.3259792917e-05
2.92688497555e-05
6.87655834362e-06
1.26711563091e-05
7.53160505419e-06
6.58024727847e-05
2.71776201369e-05
7.8912118691e-06
5.61243607125e-05
6.65853247149e-05
6.22930119483e-06
1.11320400414e-05
3.54462491023e-05
7.25684518633e-05
9.2638855938e-05
9.94898424557e-05
6.82289868639e-05
9.58835451057e-05
5.61354878045e-05
0.000132027159303
6.39637157894e-05
0.000163618492255
8.94177685632e-05
8.16422602073e-05
0.000113164820046
8.26541291457e-05
0.000110891560798
8.04455168267e-05
0.000132858464158
0.000116142813068
0.00011059709329
0.000131918158555
8.82813836153e-05
0.000103659428305
0.000116236736386
9.74529558293e-06
7.33285152033e-05
2.78725416172e-05
2.16890457765e-05
8.48934323695e-05
9.0861638372e-05
7.20996366124e-05
3.87078462828e-05
7.83180337775e-05
7.17303078852e-05
0.000128951802108
7.40491408186e-05
8.67866154432e-05
7.11110098763e-05
3.83590343521e-05
5.58726109965e-05
0.000114529245601
4.59072221337e-05
0.00010440668821
4.49624692259e-05
6.18778573124e-05
5.67711867784e-05
6.77186131418e-05
7.11258480149e-05
0.000103371335625
7.61356761754e-05
0.000109150843179
0.000121266148913
5.19580302427e-05
7.09620413946e-05
8.46613010553e-05
6.50863148319e-05
7.80109731564e-05
0.000113733227113
0.000105778848426
8.34259375104e-05
0.000157487287856
4.246704989e-05
2.92184943206e-05
4.83226458404e-05
4.2902758035e-06
2.05382605629e-05
2.96492574237e-05
1.11575818241e-05
1.51830916891e-05
2.34554409176e-05
2.41349135593e-07
5.3939428196e-08
2.37764063653e-07
1.12630210216e-07
2.58284461631e-07
6.3446366487e-07
9.57453610764e-07
2.2307522696e-06
1.07550165639e-05
5.47165176611e-06
2.90016446708e-08
2.81516026599e-08
1.08774765651e-08
6.46461958234e-08
5.28482724887e-08
4.30565205411e-08
6.55001415281e-08
7.27899256663e-08
2.51643257063e-07
2.47862985043e-07
3.41585769021e-07
2.71090759802e-07
2.49448327585e-07
5.95660274201e-07
6.56293018045e-07
5.14541153881e-07
5.05788514564e-07
6.14971818593e-07
5.75317618335e-07
6.03085401113e-07
6.60893635773e-07
2.74768481489e-06
2.31019741164e-06
1.8623241775e-06
1.19725409843e-06
1.39990395971e-06
1.44726685708e-06
1.3243839825e-06
1.63459694868e-06
3.31271233952e-05
1.66238431863e-05
3.76608152918e-05
7.9129676581e-06
4.92105762394e-05
4.75906238339e-05
6.85526205165e-05
4.25849575218e-05
5.30060572494e-06
7.18699299749e-06
1.46157954038e-05
5.49619802558e-06
4.82613764405e-06
4.64263478212e-05
0.000101478268504
9.23156704545e-05
5.10773792539e-05
4.89803023331e-06
0.000109659302426
5.12371237741e-05
2.72695116569e-05
4.68332200012e-06
5.76851520733e-06
5.32798992994e-05
3.2472111972e-05
4.85156040192e-06
3.81023320572e-05
8.61531189861e-05
6.32016623895e-05
5.00792275538e-05
9.4712644057e-09
1.68216520202e-08
6.39088976716e-08
2.08374478526e-08
2.28638773283e-07
6.66464316674e-08
6.70596285033e-08
1.13643306426e-07
9.07837659993e-08
2.11632422251e-07
3.542813701e-07
3.34660704739e-07
2.69716329535e-07
2.64377273115e-07
1.91191273598e-07
2.06885445706e-07
6.3503704045e-07
5.97657353647e-07
6.85684300254e-07
4.9994838884e-07
1.02981220366e-06
6.76829339128e-07
5.25145997173e-07
2.28530511782e-06
1.81297366674e-06
1.88995760285e-06
1.55515779513e-06
4.10770745181e-06
2.40848923628e-06
1.76305561005e-06
1.400422461e-06
1.83030061906e-05
5.62744558533e-05
4.44052671968e-05
6.57364121886e-06
3.84518540369e-05
3.57532445446e-05
7.72771273705e-05
8.19498085693e-06
7.3741939743e-05
9.33640757774e-05
4.30910227382e-05
5.39814842745e-06
1.44060280516e-05
6.84367965133e-06
1.08109295236e-05
8.71695175726e-05
2.25725700377e-05
7.47621449896e-06
0.000129177691535
0.000110533570819
2.4571537288e-05
6.26070937899e-06
2.98834012472e-05
9.0340010099e-06
8.16870562011e-05
0.000149814062808
0.000128501118496
5.17160687492e-05
0.000109922053885
3.06684771354e-05
0.000105894942772
8.49054944489e-05
4.70236166811e-05
5.14406266823e-05
0.0001075765589
0.000102070840757
7.06569507726e-05
5.82392941552e-05
7.67191200914e-05
0.000105005651688
7.40393948361e-05
8.19813057156e-05
9.49617559518e-05
9.33069911481e-05
0.000118086332256
0.00014138828202
7.90011422405e-05
0.00012680518283
9.48910731219e-05
8.87411187362e-05
7.31976279002e-05
9.85300391999e-05
0.00010860250238
0.000126668390533
3.10626763175e-05
7.96221648556e-05
6.47104509751e-05
7.92805136243e-05
4.72026234327e-05
4.23356702247e-05
3.62306419318e-05
3.9771772593e-05
7.7389896008e-05
6.00730441897e-05
4.74905935185e-05
3.60338229255e-05
9.04397919573e-05
3.90662563051e-05
4.16676766038e-05
0.000107277516665
6.29557153029e-05
8.11888533608e-05
5.20792480501e-05
3.44233070759e-05
4.52548446438e-05
6.23525842813e-05
9.40292530748e-05
7.04984003989e-05
0.000107323343003
8.06668812442e-05
0.0001096731426
9.70290609869e-05
0.000113058105138
0.000134504255095
0.000137323364901
6.69354511898e-05
6.58377480873e-05
5.00642559831e-05
0.000134975489163
0.000145555348485
4.31347828522e-05
6.81400700451e-05
9.01315045078e-05
9.61006016673e-05
8.67390258147e-05
0.000115464557265
0.000119091527962
0.000157128516031
4.05437919578e-05
0.000106496089235
3.26477290878e-05
5.09344954401e-05
9.21995024615e-07
4.13779952775e-06
1.56094530951e-05
3.26112085876e-05
1.84898692793e-05
1.89982131155e-07
3.14945846382e-08
1.17708516022e-07
2.73698635276e-07
2.79662470084e-07
4.50935524513e-07
2.11520617946e-06
6.83540456327e-06
2.61886043262e-05
1.01718783444e-05
1.73791525866e-08
1.3608805137e-08
1.13089684967e-08
2.14148673058e-08
2.29547528066e-08
9.36099065477e-08
8.06495932218e-08
7.03802541797e-08
4.58931475872e-08
4.41509794599e-08
2.1539236581e-07
2.5008643061e-07
2.75222529021e-07
2.81370123275e-07
4.30156867023e-07
3.20320458845e-07
3.94010693545e-07
3.4111089442e-07
6.52645131679e-07
5.71972844159e-07
5.74149114424e-07
6.13663077683e-07
6.79086451876e-07
7.23016108519e-07
7.66868277033e-07
7.07436452251e-07
3.30538359228e-06
2.73778468006e-06
1.28864841486e-06
1.62960324463e-06
1.37185174123e-06
1.25372386309e-06
1.29457247094e-06
1.30025336183e-06
1.43262931282e-06
1.31294315866e-06
1.33328352458e-05
2.02902100106e-05
3.03068117677e-05
5.63003233003e-05
4.21572865546e-05
1.90959043779e-05
1.60108439375e-05
5.8693199686e-06
8.38687672301e-06
4.99316985112e-05
4.00474929586e-05
4.83253531044e-06
3.99626050712e-05
4.51082059984e-06
7.85499106828e-05
8.14043884288e-05
6.45018764074e-05
4.36970608108e-06
8.65237514979e-05
5.85070834425e-05
5.10201378197e-05
3.69381377103e-05
4.7400902101e-06
6.25700395513e-06
0.000100571217534
4.68936740976e-05
4.16199139474e-06
4.10747103943e-05
7.7783866454e-05
1.32833283527e-08
1.20771881932e-08
5.6558971918e-08
3.35659952695e-08
1.6470465523e-07
8.15071598149e-08
5.66501093909e-08
8.57130173564e-08
1.0783823441e-07
6.11251216285e-08
6.20869206387e-08
2.82239972384e-07
4.48044469714e-07
4.33474311228e-07
3.25736245381e-07
2.90584263924e-07
2.1644580287e-07
2.07326412002e-07
4.56735875523e-07
5.70454267991e-07
7.14137486046e-07
4.89963006729e-07
8.83144669895e-07
5.79959341705e-07
4.59925674598e-07
4.1543472956e-07
3.03113990132e-06
1.48930279176e-06
1.89982253222e-06
1.25364088199e-06
4.39437659915e-06
2.6445589402e-06
1.97483403215e-06
1.48772309763e-06
1.24538131788e-05
6.50200255478e-05
5.74192164209e-05
6.326817635e-06
4.05373560857e-05
6.20628817419e-06
9.34970309657e-05
4.92922631818e-05
1.69593358764e-05
5.36868560278e-06
1.12584042381e-05
1.15024861812e-05
1.06555675715e-05
7.90741014726e-06
5.33132330798e-05
3.60100592488e-05
5.62529301765e-06
7.91973522895e-05
3.45792503257e-05
4.5937286652e-06
1.27600221986e-05
1.65543035177e-05
0.000135072061269
9.49013582677e-05
9.91673944186e-05
5.09218576103e-05
5.81611773751e-05
3.39672106334e-05
6.20136936741e-05
4.8308245078e-05
2.8564244181e-05
3.86611578158e-05
3.01807740781e-05
4.77392866828e-05
9.36617177438e-05
0.000101088414803
9.13218723922e-05
7.02892824056e-05
5.43707998094e-05
6.19036959786e-05
6.70124298092e-05
6.4885924122e-05
8.92784321497e-05
7.92946839597e-05
7.187234826e-05
9.16563167722e-05
7.1888658121e-05
6.55698417996e-05
8.58873636045e-05
8.7209730788e-05
8.01533101256e-05
0.000147038332308
0.00013509481888
6.45198386479e-05
4.63061386094e-05
9.13435742423e-05
0.0001028083702
0.000103623577258
0.000126704537558
0.000110459660587
9.57158266659e-05
9.83467486543e-05
0.000104350684165
0.000117983402637
0.000126292501147
0.000136223966988
4.63662224395e-05
7.43557230012e-05
0.000131439663701
2.12923795078e-05
6.04417834575e-05
4.12250952788e-05
8.21726252495e-05
4.09154149296e-05
6.1519139457e-05
2.67261294203e-05
1.35527480038e-05
5.31858968207e-05
5.15003430734e-05
3.09779359107e-05
3.95048264634e-05
0.000102322734184
1.28903990865e-05
9.37961902294e-05
2.83285794846e-05
8.0151094168e-05
0.000121381035015
7.99652730161e-05
9.19597906583e-05
5.90070354052e-05
8.6942386899e-05
0.000132992836049
0.000116578749091
8.91750320896e-05
0.000166178306444
9.32016870052e-05
0.000117300237632
0.000127260735787
0.000151110743517
0.000153872196127
0.000130490893481
0.000149185179482
0.000129607077491
4.57510978985e-05
9.72100639667e-05
0.000111617617092
7.71818128838e-05
0.000158330981128
9.77096975125e-05
0.000115946617211
7.03088469904e-05
8.67426788045e-05
0.000107988612487
0.00014022832125
0.000139952885724
3.33703990424e-05
1.71936998554e-05
1.27523366219e-05
1.51121877933e-05
1.93036169889e-05
2.44711356949e-05
2.52434228193e-07
8.80534952746e-07
3.16584941849e-06
5.58441216995e-08
2.35132398121e-07
1.08714953893e-07
2.16638029606e-07
5.38042734993e-07
2.28689454537e-06
1.87843506439e-05
3.43702136277e-06
1.37013554048e-05
1.92374062597e-05
2.54868896795e-08
2.03784700122e-08
1.65176545558e-08
1.07564861626e-08
1.02038772852e-08
7.18893288976e-08
9.24955251479e-08
6.01970774186e-08
4.12097069917e-08
6.52633177184e-08
7.11755165038e-08
5.28359203282e-08
8.55148075862e-08
2.54518302592e-07
2.5698109795e-07
2.86389647401e-07
4.0779161443e-07
5.12383113182e-07
4.22363239624e-07
5.21171145566e-07
4.07266000788e-07
7.07759243421e-07
6.70417877494e-07
4.8643813284e-07
4.99937438937e-07
6.08960121505e-07
7.25549788459e-07
7.91131530076e-07
7.84275688012e-07
7.69828534906e-07
9.20575196217e-07
2.75316167957e-06
1.48720408853e-06
1.96558349266e-06
1.24258181961e-06
1.21315960112e-06
1.25027922531e-06
1.35742380928e-06
1.56911716493e-06
1.27166041364e-06
1.34481210306e-05
7.71966266773e-05
4.57611371658e-05
1.82148110609e-05
2.87442236234e-05
5.39338803922e-06
4.23088088826e-06
8.17969355095e-06
4.52421598197e-05
4.65118857705e-05
4.55234722451e-06
4.91986631455e-06
3.65024084414e-05
4.52469365811e-06
5.89736396407e-05
9.38685684924e-05
5.48597277279e-05
4.05283155561e-06
6.85342383839e-05
6.91896471126e-05
4.01199409031e-05
3.97254440076e-05
5.44927365008e-06
4.68425397168e-06
5.04448095441e-05
4.72371025623e-05
3.79905001925e-05
4.00250389325e-06
7.92164585036e-05
1.48396011021e-08
1.00365257964e-08
2.04702541924e-08
4.56368444671e-08
2.23622928669e-08
1.62022434892e-08
2.45634784966e-07
7.41116551956e-08
1.10239382394e-07
6.54507633865e-08
1.07038510787e-07
8.17696581116e-08
8.38001784425e-08
2.27610724731e-07
4.27675650843e-07
4.95183741641e-07
3.33362488955e-07
2.55835184463e-07
1.82749347074e-07
1.78593057423e-07
2.33604343507e-07
6.39430109795e-07
5.93915781163e-07
7.49378162559e-07
5.0230763068e-07
9.75226977504e-07
6.55746946367e-07
5.23347186271e-07
4.56148525144e-07
2.36306516382e-06
1.47828702512e-06
1.50467787343e-06
1.31078747277e-06
4.00624665843e-06
2.31057511411e-06
1.80903515266e-06
1.33914707232e-06
1.11929359561e-06
1.15433712367e-05
8.15984758618e-05
8.29646992339e-05
4.58750523505e-05
5.25379334688e-06
7.18934421726e-05
3.04107569761e-05
6.39094211977e-06
6.7858439603e-05
6.67940123602e-05
3.64606823491e-05
4.05598658762e-06
2.01662394703e-05
1.12519591388e-05
1.08857087004e-05
2.0937880245e-05
8.5040098123e-06
2.17304589917e-05
6.61039838815e-06
4.82168820615e-05
2.16101731692e-05
5.14832671304e-06
1.04027583395e-05
4.23708578033e-05
4.01874123576e-05
8.97252565919e-05
3.27302178364e-05
3.30318995878e-05
2.62085652217e-05
3.36847404491e-05
4.93509979414e-05
6.90335662213e-05
0.000105606732048
0.000117376906956
2.61399707769e-05
3.04177199032e-05
2.57264064922e-05
3.24960800082e-05
4.32327213471e-05
1.89720331397e-05
6.93693958694e-05
3.43372595335e-05
5.22292126558e-05
5.72393289254e-05
0.000108172769527
5.33398256406e-05
7.87244659895e-05
6.82430265504e-05
6.32809560394e-05
7.60622703274e-05
6.71587058801e-05
9.97736643961e-05
8.36679825254e-05
7.74523444942e-05
7.44840121666e-05
0.00012513006586
0.0001381158398
0.000159372923353
4.82764284928e-05
4.63202754075e-05
6.35111886106e-05
0.000101448720619
8.042684191e-05
7.40186169208e-05
6.91240885076e-05
8.08345817588e-05
0.000102083174892
0.000101523601926
0.000130633185492
0.000158227509158
7.64612952031e-05
0.000133850975052
9.28779869725e-05
0.000147642209115
0.000150953559987
0.000159819449086
1.32657207459e-05
4.64911750558e-05
2.50185278143e-05
1.3916409969e-05
4.1757706596e-05
3.46786317063e-05
7.03503400833e-05
3.84303450987e-05
2.81072198413e-06
6.88206596642e-05
2.6249603549e-05
3.34994374949e-05
1.23360011341e-05
2.70090146044e-06
3.75246801359e-05
5.56069296595e-05
4.02925291762e-05
9.15999155859e-05
7.52048981439e-05
2.26676855632e-05
3.35043470035e-05
9.27293819338e-05
6.6980294726e-05
0.00013654423458
6.35962066207e-05
0.000163917629292
5.72319734842e-05
9.62141086851e-05
7.90199643753e-05
0.000109028927309
7.9744117725e-05
0.000118666251439
6.48996547461e-05
0.00012393431074
0.000132279904054
8.0890379142e-05
0.000135516266383
0.000100020972228
0.000150945908957
7.82847435644e-05
0.000121896107022
0.000123253894839
0.000150854598224
6.84495320397e-05
0.000114261657801
0.000200147220302
7.5071752745e-05
0.000102711167531
0.000132615898656
9.15347755881e-05
0.000133382346045
0.000103820717688
0.000127018359642
2.6865059673e-05
4.05318575512e-05
1.89828660599e-05
1.04157004786e-05
5.46225735576e-05
1.05284160382e-07
2.70969931593e-07
6.98643990862e-07
4.26348606665e-08
1.6890652192e-07
2.58209727666e-07
4.49815596235e-07
3.14689867527e-06
7.76179343515e-07
1.39783223483e-05
3.85197850019e-06
1.8618832963e-08
2.41122950223e-08
1.33258158122e-08
1.08750643618e-08
1.4262714652e-08
1.39893847509e-08
7.88280035994e-09
1.70197866225e-08
9.43990983461e-08
7.96985136731e-08
8.97420568604e-08
4.20811423814e-08
6.16494311904e-08
7.36274225336e-08
8.15854792361e-08
7.79905095438e-08
2.50103621992e-07
2.93345601586e-07
2.88121411227e-07
2.50597855748e-07
3.92162846799e-07
5.10693420643e-07
6.27634580551e-07
4.8815099781e-07
4.61834139989e-07
6.49304135828e-07
6.34525751473e-07
5.89880935429e-07
6.34802773368e-07
6.68306211533e-07
8.5448012573e-07
9.47063623994e-07
9.69019194635e-07
8.53209515143e-07
1.04652595148e-06
2.89163819122e-06
1.34811750244e-06
1.14037061765e-06
1.85376460493e-06
1.22418148519e-06
1.28286647976e-06
1.24513979314e-06
1.26851554671e-06
1.45760383319e-06
1.38938606805e-06
1.30810304339e-06
3.23053889894e-05
6.44291799854e-06
4.97577162259e-06
8.84702686032e-06
4.29587904855e-05
4.64756741494e-05
3.76134509719e-05
3.73194115271e-06
4.33493286236e-06
3.71486961438e-05
3.76812313595e-05
3.91460698488e-06
7.49866760684e-05
5.58430384133e-05
4.96930096715e-05
3.95619877447e-06
7.04000734508e-05
7.06643063264e-05
6.03451928133e-05
3.81307057723e-05
5.01275464275e-05
5.80734827609e-06
3.74951522836e-06
6.08267026719e-05
3.63490925543e-05
3.4447769555e-06
1.16503325249e-08
1.92241510825e-08
1.29528078382e-08
5.38895664625e-08
4.1372328009e-08
2.91691684245e-08
1.72900138314e-07
9.69757385338e-08
8.38434586416e-08
8.62912821516e-08
1.14860072866e-07
5.46357523528e-08
4.98949119123e-08
5.48480989833e-08
2.75282297972e-07
4.84111447621e-07
5.33918112023e-07
3.82368437735e-07
2.79655065346e-07
2.15360257824e-07
2.00069714519e-07
2.5425457062e-07
4.6389991672e-07
6.2687074897e-07
7.47786322778e-07
5.19967339668e-07
9.08942491779e-07
5.68073786171e-07
4.64475476853e-07
3.99357935843e-07
4.16774174819e-07
2.23822652488e-06
1.26499712235e-06
1.57290621057e-06
1.0476286206e-06
4.58191563914e-06
2.45022062132e-06
1.97038743233e-06
1.58608436492e-06
1.28104847443e-06
1.16843319256e-05
5.36165252968e-05
4.15414123792e-05
5.22118254546e-06
5.5514651896e-05
5.10868952136e-06
3.45249147616e-05
1.76931473822e-05
4.3047716079e-06
1.82901402909e-05
2.01352539762e-05
2.111410693e-05
8.54438769746e-06
1.29150054804e-05
6.86061733197e-06
3.50770082503e-05
4.83483509328e-06
5.37216183905e-05
3.40087156319e-05
3.63841568024e-06
2.94994795718e-05
2.02602071179e-05
4.16477883645e-05
1.66849402426e-05
0.00013053108521
6.20298969024e-05
2.64836324147e-05
2.83464295984e-05
1.98636193595e-05
1.87814142978e-05
1.54920212657e-05
1.56248437602e-05
1.82216340757e-05
1.54467352801e-05
2.95553618951e-05
3.46692164211e-05
2.97298360044e-05
4.22269328767e-05