/*--------------------------------*- C++ -*----------------------------------*\
| =========                 |                                                 |
| \\      /  F ield         | OpenFOAM: The Open Source CFD Toolbox           |
|  \\    /   O peration     | Version:  2.3.1                                 |
|   \\  /    A nd           | Web:      www.OpenFOAM.org                      |
|    \\/     M anipulation  |                                                 |
\*---------------------------------------------------------------------------*/
FoamFile
{
    version     2.0;
    format      ascii;
    class       volScalarField;
    location    "1000";
    object      nut;
}
// * * * * * * * * * * * * * * * * * * * * * * * * * * * * * * * * * * * * * //

dimensions      [0 2 -1 0 0 0 0];

internalField   nonuniform List<scalar> 
143879
(
8.56809444163e-08
2.41785198898e-07
1.52387186915e-07
6.17951574737e-08
1.20127055991e-07
1.66249571078e-07
2.34572788215e-07
1.89311512347e-07
9.23878110283e-08
2.10071973211e-07
5.10408914789e-08
5.53447192722e-08
1.02020562049e-07
1.60725105288e-07
2.50415933364e-07
4.19790514287e-07
2.37178305591e-07
4.74351222462e-07
2.14951688328e-07
1.09380256867e-07
2.39121187172e-07
7.43256440507e-08
1.41144516311e-07
2.40493964822e-07
6.79320178517e-07
9.28786961549e-08
8.28336721996e-08
1.56181851772e-07
1.56911708013e-07
2.63380317575e-07
1.57959399627e-07
2.34169966227e-07
1.44279538399e-07
5.28669591653e-07
6.72849778312e-07
4.22587017436e-07
6.81009281537e-07
9.56054676778e-08
1.22529196991e-07
3.09722986721e-07
9.74979317673e-08
1.71511099386e-07
2.09067163828e-07
2.19403514957e-07
9.58643370649e-07
3.05207923526e-07
2.32753536681e-07
4.51131672545e-07
2.10372293245e-07
5.02090895502e-07
1.01048077787e-06
1.67238985589e-07
3.56197915241e-07
2.50407974751e-07
1.4084403511e-07
3.21967899442e-07
1.28765014783e-07
3.42395608322e-07
2.75774448892e-07
9.9863737637e-08
3.28257086997e-07
3.97944793574e-07
3.12069015474e-07
3.67953914434e-07
2.8476993805e-07
6.68862659663e-07
6.96098130458e-07
9.00420887839e-07
5.62459552543e-07
8.86563925826e-07
1.82881476914e-07
7.00518157507e-08
8.44274167097e-08
1.85369010717e-07
2.87814042932e-07
4.74296710118e-07
4.86509970425e-07
2.5364382117e-07
3.54882395406e-07
2.1386119395e-07
1.91012584997e-07
2.6994418496e-06
2.87967030833e-06
6.76738056343e-07
3.96565709331e-07
2.44091346226e-07
5.85249696911e-07
3.37618658306e-07
1.64012211884e-06
1.09514340734e-06
1.25660997006e-06
9.81605565653e-07
2.06251762851e-07
3.61834319431e-07
3.55919330543e-07
3.23850134886e-07
2.56525115137e-07
7.65525754008e-08
2.43957343162e-07
3.76282376431e-07
3.215596307e-07
4.65003828164e-07
1.89001009201e-07
2.99042491213e-07
1.49289403109e-06
3.39269683019e-07
3.05733282142e-07
5.16654427755e-07
1.62926052301e-07
4.20930531335e-07
4.54044584653e-07
5.85677006858e-07
2.99581655694e-07
5.78263815254e-07
2.78451548487e-07
5.36070974789e-07
9.33635232773e-07
1.01813374711e-06
1.0132658267e-06
1.08486136591e-06
9.20998354874e-07
1.26093451265e-06
2.62639025055e-07
1.12495882494e-07
4.19584772304e-07
6.12925474433e-08
4.59522178582e-07
2.86021860069e-07
2.36208900417e-07
3.99400445956e-07
4.37825003192e-07
8.91882846882e-07
1.13639284495e-06
3.6496719924e-07
4.41579875907e-07
3.09215458321e-07
1.9265031395e-07
4.43131653775e-07
3.15688983695e-06
2.18016286441e-06
3.3334201325e-06
3.17457925893e-06
3.03895592178e-06
1.30843024452e-06
8.14361482538e-07
5.29180755156e-07
3.66137174303e-07
6.70997718943e-07
4.25022633537e-07
9.79932559293e-07
1.22998340933e-06
9.81474793654e-07
1.46952461696e-06
1.97393464368e-07
4.82444097853e-07
3.45550406625e-07
6.01589150882e-07
3.1959109048e-07
3.51223217178e-07
5.90748644412e-07
1.1762742046e-07
6.57849941999e-07
3.95119186734e-07
5.92016817432e-07
3.68614774446e-07
5.70686283282e-07
6.18411866663e-07
3.86346688369e-07
3.97436175096e-07
6.98742784401e-07
3.52020645137e-07
3.20030104915e-07
7.19812176097e-07
3.4658140098e-07
7.90252710864e-07
3.61902212046e-07
4.12490199761e-07
7.24269679058e-07
1.59276182389e-07
3.33335992549e-07
6.69003051196e-07
7.40263361645e-07
6.26366645926e-07
7.3138478587e-07
6.11556711939e-07
6.4736702682e-07
2.84092454834e-07
5.23448740349e-07
6.82475834931e-07
9.84168550595e-07
1.10036175079e-06
1.15954528379e-06
1.25904779092e-06
1.26489506226e-06
9.21531233989e-07
1.36804035349e-06
1.91491362162e-07
1.3831354017e-07
4.68683574409e-07
9.39416051971e-08
2.06794895136e-07
5.21737104301e-07
9.03290978987e-07
6.07991064548e-07
3.34132114708e-07
5.4984103324e-07
4.43592314584e-07
4.50644947405e-07
6.48229790851e-07
3.18061584221e-06
1.09670717738e-06
2.4038701328e-06
1.12136663155e-06
4.81187573851e-07
5.89219519201e-07
6.88566520623e-07
4.21639021893e-07
4.59436177935e-07
6.50857727279e-07
2.05188858113e-06
2.78934963295e-06
4.23143318902e-06
3.78755757676e-06
1.41511528284e-06
4.25139620471e-06
4.43164553353e-06
2.04885686027e-06
1.13844865956e-06
1.06981882512e-06
4.56264909759e-07
6.46776363545e-07
5.6860063249e-07
8.72030258837e-07
7.64644433407e-07
1.25147537617e-06
1.34928571501e-06
7.72628977458e-07
1.02567182387e-06
1.42427388243e-06
1.34344062e-06
4.5498016693e-07
4.29382568156e-07
6.55069182498e-07
3.36218204031e-07
3.74568485192e-07
3.86707725414e-07
5.29719286094e-07
9.02280108958e-07
1.48705334963e-07
4.16923905146e-07
8.89264307512e-07
5.88590394375e-07
3.88355036464e-07
6.61652177846e-07
4.51508739173e-07
4.32484813339e-07
1.18838361508e-06
1.01472169063e-06
3.88857106306e-07
4.40645302502e-07
4.2280132301e-07
7.39322273272e-07
8.65850037675e-07
1.11402138294e-06
3.24289829195e-07
3.29585405837e-07
3.58674829462e-07
1.53767135615e-06
2.99663307164e-07
1.425301735e-06
4.25432563789e-06
5.27964125623e-07
4.11396480898e-07
4.32630331097e-07
4.57670356596e-07
7.87989931918e-07
1.44309619645e-07
2.89045609977e-07
4.12238061818e-07
8.27739119541e-07
8.64003150119e-07
7.97320316753e-07
8.94588071767e-07
9.55685856042e-07
5.32134359912e-07
9.71070128777e-07
4.56977145606e-07
6.29336444525e-07
5.69589283197e-07
8.64649895842e-07
1.13154373177e-06
1.2687849564e-06
1.34710348722e-06
1.43762739375e-06
1.38637040652e-06
1.12252501228e-06
1.58157210525e-06
1.18105306945e-07
5.96247465254e-07
1.06664069492e-07
2.21551095343e-07
6.70326790319e-07
2.28656584917e-07
2.50855411627e-07
6.40348472294e-07
1.65161181712e-06
9.24931829004e-07
1.32019378965e-06
5.57390247077e-07
3.42339418616e-07
4.17573741532e-07
6.30428805545e-07
5.53051865417e-07
5.87016542459e-07
4.02503345688e-06
3.77985145856e-06
1.36570367269e-06
1.59114136465e-06
1.9042272695e-06
1.9140892613e-06
1.8024240595e-06
7.69350754291e-07
9.56924713155e-07
1.02937993809e-06
4.96572076949e-07
6.64153197863e-07
6.94153635448e-07
9.53669563836e-07
3.99455503896e-06
1.93762767313e-06
3.70701847889e-06
3.65796560724e-06
4.162060274e-06
4.9200676799e-06
5.0666244699e-06
3.60472029904e-06
1.4065130741e-06
1.5610839084e-06
6.12218465171e-07
6.4015166799e-07
5.80152541127e-07
8.32987535411e-07
8.46597509699e-07
1.21725479031e-06
1.3513496064e-06
8.24097091738e-07
9.62963665028e-07
6.2942254669e-07
2.00742278469e-06
7.54881019908e-07
4.28278456898e-07
3.58691277529e-07
7.77501930019e-07
5.15380034698e-07
3.74724990973e-07
4.76700584647e-07
3.79276609734e-07
5.09657539934e-07
5.39103966533e-07
1.27805114002e-06
7.51181112526e-07
1.60608431531e-06
1.48654498225e-07
4.53001737061e-07
7.26868066242e-07
7.00508528499e-07
7.54087324316e-07
1.21015104713e-06
5.92037417502e-07
5.12357090194e-07
4.13541455977e-07
5.7747357754e-07
5.43087333819e-07
6.33893947066e-07
1.56080950412e-06
1.21927783851e-06
6.37654878618e-07
9.22153211091e-07
4.39062413625e-07
4.90045587215e-07
4.58964521267e-07
4.24168772668e-07
4.51462410264e-07
1.05195573304e-06
1.08993419505e-06
5.8674930618e-07
3.91993070747e-07
3.48113567444e-07
3.93543836308e-07
3.78924022181e-07
4.05950092835e-07
7.14670073232e-07
6.1944630886e-07
4.68764754177e-07
8.44783378927e-07
4.20750394087e-07
4.3053549648e-07
4.23064655519e-07
4.3998381255e-07
4.78939478824e-07
9.67292166705e-07
2.37241824281e-07
3.82472302781e-07
3.49438888614e-07
6.95339531829e-07
1.13599191143e-06
1.12392870926e-06
1.05121766154e-06
9.41796923756e-07
1.03443033131e-06
8.36039410252e-07
8.76195158908e-07
7.47260423213e-07
4.2156797375e-07
7.5167831948e-07
6.86175007873e-07
3.43681130491e-07
8.97391351512e-07
1.10161492025e-06
1.26621993305e-06
1.44446558757e-06
1.46164767573e-06
1.54321653012e-06
1.52730800177e-06
8.35675868896e-07
1.56318627213e-06
1.11987130993e-07
2.64306392404e-07
5.87421222363e-07
7.23093255613e-07
2.97991981226e-07
2.46499031213e-07
7.35001190053e-07
2.74892844614e-07
3.36853603503e-07
6.92038562037e-07
1.7581603311e-06
1.39680213988e-06
1.02823421627e-06
1.94073032635e-06
1.12836163463e-06
9.33039925436e-07
5.17461093694e-07
5.25594866091e-07
7.92998165569e-07
6.18448152077e-07
7.11568808497e-07
4.06732920321e-06
3.71854870106e-06
1.99784604095e-06
2.47664800365e-06
2.71797536902e-06
2.06851898234e-06
1.67013690877e-06
2.58225464542e-06
2.42660383212e-06
9.64866277484e-07
1.22935371273e-06
1.30585589353e-06
1.47993129486e-06
8.25274152475e-07
8.6311148143e-07
9.24512054761e-07
1.13679434333e-06
8.86492519945e-07
2.14284489282e-06
4.47556739046e-06
4.9668713279e-06
3.08101226234e-06
6.24007697768e-06
4.75889403062e-06
1.96884789407e-06
2.67061889717e-06
9.01805488665e-07
4.95767082302e-07
6.5832763626e-07
1.05414040861e-06
1.15346635179e-06
6.50307448964e-07
1.01504588969e-06
1.16157420176e-06
1.01226199645e-06
8.88772324117e-07
6.80696895758e-07
5.64451738372e-07
7.48579234158e-07
4.18344100834e-07
3.48119469269e-07
4.26311695114e-07
8.53892994385e-07
6.61866850114e-07
4.55769714814e-07
6.00602285424e-07
4.87769298438e-07
4.10678125877e-07
4.96812391881e-07
5.20031650659e-07
6.16898085653e-07
5.41580145153e-07
5.75224295248e-07
1.05834901054e-06
1.29884533768e-06
7.91358001576e-07
2.27249478766e-06
5.71711749698e-07
7.3586811078e-07
1.16561528762e-06
8.33858343907e-07
9.12965355587e-07
1.55050595256e-06
9.24276786517e-07
5.81194327663e-07
5.10769422155e-07
5.25929373584e-07
4.39027886078e-07
5.1490336593e-07
5.28040307423e-07
4.91277253922e-07
6.45500445875e-07
5.16622384547e-07
8.7392957565e-07
1.77398191679e-06
6.48458731713e-07
1.46802534594e-06
6.4492310204e-07
4.86823527665e-07
4.65137637085e-07
1.1279297125e-06
4.52468454033e-07
4.66101862082e-07
5.10434507444e-07
4.97473246362e-07
4.61160359091e-07
5.23475621432e-07
5.31700231047e-07
9.57686440616e-07
5.27823141994e-07
1.13378511122e-06
4.01561910363e-07
3.73285149063e-07
4.30445314402e-07
4.07194496231e-07
6.43110464172e-07
5.96534571162e-07
4.72941707197e-07
4.63773296467e-07
1.09815652139e-06
4.3594484482e-06
7.30608934534e-07
4.2986110573e-07
4.30967830542e-07
4.31113802533e-07
4.55092961639e-07
4.65985096702e-07
5.21203223472e-07
4.70269649262e-07
1.01159244378e-06
2.42038342933e-07
3.06249441767e-07
5.24768177142e-07
6.67741578728e-07
4.80218677659e-07
8.29861904922e-07
1.2962087778e-06
1.18288719844e-06
1.18791101448e-06
1.15024462016e-06
1.09356037979e-06
1.09715498495e-06
1.96226857053e-06
1.12790558806e-06
5.31328199384e-07
5.44006912081e-07
8.06356530089e-07
7.58309431393e-07
5.6364084598e-07
9.66404313697e-07
1.15063089197e-06
1.36425347414e-06
1.57441605384e-06
1.60610215425e-06
1.63165064759e-06
1.59317262355e-06
1.21881754104e-06
1.64600018831e-06
1.6596086141e-06
4.82511284942e-07
2.34655553844e-07
3.38318896476e-07
2.90145381845e-07
6.56741757694e-07
7.36863274655e-07
3.21111500714e-07
4.26010272114e-07
8.94945131601e-07
9.30911990626e-07
4.79297051912e-07
7.59999157152e-07
2.14990397849e-06
1.8351446283e-06
2.35861413465e-06
2.30709738857e-06
1.33281170595e-06
1.20421857656e-06
1.1033571598e-06
1.24179136183e-06
1.28399775498e-06
1.03133806344e-06
6.65191326949e-07
9.72028032645e-07
7.71296690554e-07
7.82230017302e-07
5.12325781409e-06
2.50262770558e-06
4.04325812386e-06
2.5347332861e-06
3.78597734606e-06
2.72186211834e-06
5.63815251727e-06
2.79878534915e-06
1.36528175213e-06
1.90370680951e-06
9.39522698048e-07
3.52559729633e-06
2.54885403631e-06
3.72611719129e-06
3.53414066198e-06
1.3246808935e-06
2.06930861513e-06
2.64471404007e-06
2.30384429493e-06
9.66001288379e-07
1.08757057349e-06
9.81358396391e-07
1.14856466777e-06
1.20626782476e-06
6.12701438427e-06
6.60853887908e-06
6.5377030207e-06
3.65127687296e-06
8.29701351024e-06
6.67274615698e-06
7.01290411976e-06
6.61555447506e-06
2.59770128231e-06
2.95677819886e-06
1.21476531308e-06
7.1370434822e-07
5.31452730753e-07
7.00368464688e-07
6.2443300459e-07
5.21653945784e-07
9.12653194262e-07
7.18858092786e-07
1.0044339208e-06
6.67455720785e-07
6.59085983106e-07
6.83252937485e-07
3.73694060646e-07
3.6219632343e-07
4.19585120378e-07
1.20272827085e-06
1.03038598649e-06
6.77923053549e-07
6.31038687815e-07
7.11658295335e-07
7.6713724018e-07
4.55254148555e-07
5.0170110079e-07
5.12547767155e-07
4.31881220553e-07
5.71936964974e-07
4.87306083025e-07
6.18443498526e-07
4.64326224414e-07
4.83613175598e-07
4.70175546517e-07
5.30741177636e-07
7.09039683568e-07
6.18467362535e-07
5.49207665704e-07
5.64360028448e-07
5.77356451073e-07
9.52555554291e-07
1.15604662543e-06
8.25113634282e-07
9.47756602706e-07
6.58957847359e-07
2.34838942342e-06
7.36027121461e-07
1.06291071953e-06
9.9135471378e-07
1.46343983664e-06
2.61474235305e-06
2.26171912766e-06
1.84715506497e-06
7.82086744639e-07
8.98121250467e-07
9.91804087416e-07
1.14537453104e-06
1.94558960737e-06
5.12366796424e-07
6.33217905853e-07
5.47933701168e-07
5.18670368663e-07
4.92686833199e-07
5.10920171396e-07
5.28692433331e-07
5.21867973745e-07
6.33309453711e-07
5.69008118311e-07
5.57447851614e-07
7.46447080959e-07
8.07294788057e-07
2.13248937617e-06
1.50092422133e-06
6.50276853134e-07
1.17433709487e-06
5.25306235226e-07
5.46785787792e-07
6.23585405462e-07
1.2014259801e-06
4.53880796865e-07
4.64565010203e-07
6.29138202594e-07
5.88540974076e-07
4.9531237147e-07
5.43683620473e-07
5.37590590791e-07
1.05806251454e-06
5.31811262931e-07
1.05211684027e-06
4.54196056693e-07
4.09238056944e-07
3.78044390022e-07
4.50117153655e-07
4.55586097601e-07
4.26815870605e-07
4.0656784946e-07
4.03187617052e-07
6.27602752745e-07
1.18543818008e-06
4.50840716579e-07
4.75303756176e-07
1.23661974357e-06
2.20393143743e-06
1.028677464e-06
4.90666676293e-06
4.56787271215e-07
4.28399729628e-07
4.60571612482e-07
4.67228921952e-07
4.66282809735e-07
4.93303805036e-07
5.05778231392e-07
5.24175582304e-07
5.16645131209e-07
4.99165784107e-07
1.0850758699e-06
7.90483258236e-07
6.80621276666e-07
7.50953925846e-07
8.78892449998e-07
6.43212397394e-07
1.154083251e-06
1.41853028267e-06
1.31585719033e-06
1.3088970215e-06
1.21124516987e-06
1.16913926947e-06
1.16915406003e-06
9.16340807132e-07
1.15265008098e-06
9.56467893124e-07
5.20802233e-07
9.66732671648e-07
4.78336016711e-07
7.92146176893e-07
7.2428000973e-07
3.73367463426e-07
8.78083406367e-07
1.26113650421e-06
1.02874942839e-06
1.41765424894e-06
1.56205206071e-06
1.74937245009e-06
1.70424530577e-06
1.67067941442e-06
9.46143932974e-07
1.69755277394e-06
1.59746678894e-06
2.90977242086e-07
2.8843128948e-07
5.4525935969e-07
3.74379202929e-07
3.89825945899e-07
9.16710466643e-07
6.99202972397e-07
3.00301967921e-07
5.30148779997e-07
4.59025876676e-07
9.42949188477e-07
7.39333532854e-07
6.61826908334e-07
9.37415819002e-07
1.73043818522e-06
1.43489739904e-06
2.41692338815e-06
2.41793049204e-06
2.86975069642e-06
2.31045351646e-06
1.34928220179e-06
1.04386547032e-06
1.21238862205e-06
1.08118489478e-06
3.23139493364e-06
1.18315680839e-06
9.60562307122e-07
1.0656791341e-06
8.46034910752e-07
8.8927849432e-07
4.73488573097e-06
4.63113157945e-06
4.96591050895e-06
5.41255168662e-06
3.87504813175e-06
6.41252378088e-06
5.73430385952e-06
4.35756033028e-06
4.79369245936e-06
3.99212675241e-06
5.33953872703e-06
1.47112361761e-06
9.35095131447e-07
7.18172009273e-07
2.97493163593e-06
1.83059989858e-06
2.05557854942e-06
3.8851558877e-06
4.62874444392e-06
5.06888922064e-06
1.49146493527e-06
2.01164156637e-06
4.20926600051e-06
2.77238745223e-06
3.73454761635e-06
1.26000531883e-06
1.35929602241e-06
1.17631108246e-06
1.29943333492e-06
1.26170535558e-06
5.37649298113e-06
8.33431689904e-06
1.47733365722e-06
5.16575272251e-06
9.66916167634e-06
8.78143321277e-06
4.82892913148e-06
9.70527323071e-06
5.74018958025e-06
3.09406699614e-06
3.5445199602e-06
1.49165438811e-06
1.50700719378e-06
6.0480154279e-07
6.87645708514e-07
1.07634809544e-06
2.72611569851e-07
2.83276246925e-07
6.18725699428e-07
6.34022788605e-07
3.96587537854e-07
4.10390036826e-07
6.82966929227e-07
5.19055496745e-07
3.76441138514e-07
4.69839185349e-07
1.08502385304e-06
8.08890414872e-07
8.5253910162e-07
8.09176968177e-07
7.79934468306e-07
8.0049263023e-07
7.19147233897e-07
8.41051736127e-07
8.0052195186e-07
8.61195845082e-07
4.95642545601e-07
5.04975624508e-07
2.47896954796e-07
2.58234418788e-07
4.33865863478e-07
7.24880129039e-07
4.73034370698e-07
5.07954264976e-07
4.76513533816e-07
4.34736620063e-07
8.22189128028e-07
5.06924518635e-07
4.98068439737e-07
4.65247597722e-07
6.44113841358e-07
2.43579529845e-07
5.45794186112e-07
5.7141831111e-07
7.10808807483e-07
8.53044995145e-07
6.19993039358e-07
6.13402583951e-07
5.72480612812e-07
5.52599193422e-07
9.86678638978e-07
5.78249352458e-07
8.72068013188e-07
1.09430757086e-06
8.45431985042e-07
6.03900614533e-07
2.68089721601e-07
6.7396683161e-07
1.25371555824e-06
2.16175667224e-06
3.81805089495e-06
2.44707963508e-06
1.03285089806e-06
1.02900847838e-06
1.96147766431e-06
1.08069832627e-06
1.55687929359e-06
2.90167891577e-06
2.62675511265e-06
8.86371914918e-07
8.82014112257e-07
8.47813903361e-07
1.0366514392e-06
2.20953349683e-06
5.31619390426e-07
6.76132057975e-07
5.47102184441e-07
6.69761381274e-07
5.37144088139e-07
5.75507392275e-07
4.71081061623e-07
5.23057866582e-07
6.29786182398e-07
5.79528472194e-07
5.84576582978e-07
5.63793430911e-07
6.27626657652e-07
6.45463327939e-07
6.45059806092e-07
7.73043408763e-07
2.05411230027e-06
6.09363328392e-07
1.5561097767e-06
7.35245343268e-07
6.0704254689e-07
1.17830144987e-06
7.36324099024e-07
6.41737093712e-07
5.45571122436e-07
6.04981689231e-07
5.51268133855e-07
1.0707847564e-06
6.19322208256e-07
9.00408639233e-07
8.92632434157e-07
5.78330927843e-07
5.79805008083e-07
5.64452982763e-07
1.06913237609e-06
5.68066891594e-07
1.05076299764e-06
4.68222181787e-07
4.04316408671e-07
4.67141586022e-07
4.30470246875e-07
4.04367694453e-07
4.09365579231e-07
8.09681352088e-07
4.36883488546e-07
5.10635180621e-07
4.79186775543e-07
4.73142917017e-07
1.57442375704e-06
1.19045951601e-06
1.01847930762e-05
9.58749521814e-07
9.08740062385e-06
8.04961734411e-07
5.02783306311e-07
5.0095287609e-07
6.17372072095e-07
5.87259386612e-07
5.72413332763e-07
5.55596522555e-07
5.15915180182e-07
5.60955097899e-07
5.62027276352e-07
7.01325437308e-07
4.97645134468e-07
5.86380377373e-07
5.33928906259e-07
1.07592470817e-06
1.07872423244e-06
9.0826857676e-07
3.68997220268e-07
5.11806176527e-07
9.46296420041e-07
9.33862533838e-07
9.6514345697e-07
1.30630015921e-06
1.34658088242e-06
1.41568982658e-06
1.32372491544e-06
1.34245692629e-06
1.34045565109e-06
1.28369411499e-06
1.21884398095e-06
2.22528743826e-06
1.20501356461e-06
1.1032875993e-06
4.68489105226e-07
6.98652191717e-07
6.30047425983e-07
8.22105252028e-07
7.05859245346e-07
5.93128754555e-07
8.98290510807e-07
1.25691505402e-06
1.05185965056e-06
1.39611277287e-06
1.75930380517e-06
1.89824831373e-06
1.81290562543e-06
1.74721451108e-06
1.231028598e-06
1.78794732509e-06
1.6720614333e-06
1.64029257095e-06
2.36766079433e-07
3.90570491021e-07
2.67191240354e-07
3.44255065142e-07
5.30099262241e-07
3.93531243178e-07
9.41026329294e-07
9.1363128162e-07
2.92876373372e-07
7.72186762493e-07
6.23259620354e-07
1.02806238499e-06
3.1623027199e-07
8.43782298053e-07
7.30577040173e-07
9.13999192466e-07
1.90075226968e-06
2.32510861031e-06
1.7859573916e-06
2.73949205502e-06
3.76731503224e-06
4.44638081296e-06
1.39669131678e-06
2.10837784507e-06
7.60176840104e-07
4.48087106561e-07
1.40186264275e-06
4.3904541609e-06
2.32368120823e-06
1.08234051561e-06
1.07243526771e-06
8.58644594665e-07
1.56120085119e-06
5.73860750968e-06
9.75495032894e-07
7.05003825664e-06
5.42520788318e-06
6.16516138397e-06
4.15310333773e-06
6.03113628963e-06
6.37403559003e-06
7.38967586551e-06
7.1081616891e-06
3.92304826202e-06
3.49504453776e-06
3.6210092965e-06
3.17963182607e-06
3.57488261865e-06
4.65029491953e-06
7.27371827162e-07
9.98792494045e-07
1.43782838209e-06
1.57458157729e-06
4.30255744985e-06
5.13642727554e-06
8.06759204239e-06
2.0435095954e-06
3.06931541241e-06
4.99391231875e-06
5.40840513502e-06
3.83755904674e-06
1.34165347368e-06
1.48768010469e-06
1.54339351406e-06
1.41559228914e-06
1.319339567e-06
1.30717663038e-06
1.23802797047e-06
9.74807196809e-06
1.97938694969e-06
9.65693681218e-06
1.12102555735e-05
8.20754920598e-06
5.3944583137e-06
9.8916787351e-06
1.17258291154e-05
7.58814584413e-06
7.70712178731e-06
3.8842531234e-06
3.93666540892e-06
2.06840706331e-06
1.46503833614e-06
1.76560376218e-06
5.99590863035e-07
7.17519881123e-07
1.00161937146e-06
1.25890962815e-06
2.88628192929e-07
2.8375525611e-07
3.8742423883e-07
5.67242577348e-07
4.03697841808e-07
3.79855543039e-07
1.17839142735e-06
1.32147063733e-06
5.34456964459e-07
1.34688750073e-06
1.12870054314e-06
4.53133032744e-07
1.1581593443e-06
7.69452117776e-07
1.35403308635e-06
8.92268377792e-07
1.33666823189e-06
8.69900444153e-07
8.69052552286e-07
9.70599319368e-07
5.30152652078e-07
8.88878177507e-07
5.36454314559e-07
2.90848633892e-07
2.45027966468e-07
2.45933063877e-07
2.23159303196e-07
3.87413231869e-07
1.31973580104e-06
8.64869015125e-07
4.67495799152e-07
4.91377950923e-07
4.19323758357e-07
7.93059981988e-07
4.32584968267e-07
8.43866536684e-07
8.6135265928e-07
6.59837088254e-07
5.03463181384e-07
5.02954353563e-07
4.11648037276e-07
2.46903055225e-07
4.00812458162e-07
6.38523950384e-07
5.88214613058e-07
8.75974742779e-07
8.26381254216e-07
9.58212515993e-07
6.13926918746e-07
8.05480580201e-07
7.34655908165e-07
5.9148884008e-07
5.81134356395e-07
6.96778734489e-07
5.77543021498e-07
8.57119689235e-07
1.03686320666e-06
5.98367771727e-07
6.29672877791e-07
1.26556725982e-06
2.25440667196e-06
2.30105079808e-06
1.0927083904e-06
3.34952377114e-06
3.51057627498e-06
2.04267283623e-06
8.58626084707e-07
1.03537948227e-06
8.86872997933e-07
2.48477431956e-06
1.13973967512e-06
1.10223701934e-06
1.31099323318e-06
3.27218786707e-06
3.61172391083e-06
2.55839182894e-06
5.58490142392e-07
8.45245905789e-07
5.68122638344e-07
8.73306162377e-07
9.81193489825e-07
2.4815709054e-06
6.51286929214e-07
9.03333712039e-07
5.79459719148e-07
7.42233904363e-07
6.52801064037e-07
4.81072992383e-07
9.32128117138e-07
5.80970829767e-07
5.59602496619e-07
6.1247936385e-07
7.87581977376e-07
6.29712185291e-07
5.77447336851e-07
5.846544992e-07
6.02768291942e-07
1.73416865622e-06
2.13372589086e-06
6.26857988415e-07
6.20942011169e-07
1.39559607248e-06
6.3342561482e-07
7.43295621467e-07
8.62386132133e-07
6.43443012259e-07
6.03321383709e-07
6.45679543685e-07
1.17466505423e-06
1.10448904021e-06
1.07472785553e-06
6.30326263132e-07
7.15587682694e-07
6.93333134077e-07
6.79251064909e-07
6.77721726109e-07
6.3619453162e-07
1.07975242126e-06
8.38290011799e-07
9.35024025458e-07
1.16118237649e-06
9.06636393529e-07
6.92381721313e-07
6.12968487689e-07
5.95237674959e-07
1.09186177716e-06
6.04411912109e-07
6.12134213769e-07
4.97471476363e-07
5.363399246e-07
4.99244769071e-07
5.39320472302e-07
5.00023574039e-07
4.30940231371e-07
4.09207308053e-07
3.50362978799e-07
4.43728059869e-07
5.38894525121e-07
5.06989534817e-07
4.89278105039e-07
4.74416605178e-07
5.36257028565e-07
1.60160324902e-06
1.23555507845e-06
4.29375813345e-07
1.12147795784e-05
1.4497507775e-06
2.41562019341e-06
8.06342647653e-07
5.51814534512e-06
5.79217265996e-07
6.39202493768e-07
7.33864384963e-07
5.64032213978e-07
6.43749226608e-07
6.5138681348e-07
6.5406190602e-07
7.15565858655e-07
5.72140946078e-07
5.58134866348e-07
5.42674509412e-07
5.3606137181e-07
1.05706008546e-06
1.03558415451e-06
1.50946638759e-06
7.15178673009e-07
5.45017806658e-07
1.24163645377e-06
1.09762980379e-06
5.72995978363e-07
1.37690936842e-06
1.32023318492e-06
1.36681077192e-06
1.29481148621e-06
1.39139702017e-06
1.42976430292e-06
1.34673257309e-06
1.29048710116e-06
8.76906949197e-07
1.26602303501e-06
1.14240291803e-06
9.10007222197e-07
5.60955495454e-07
6.05353269023e-07
9.43396434673e-07
4.81133655851e-07
7.16586013549e-07
6.53429922354e-07
3.4607853973e-07
7.97058177685e-07
1.17218942976e-06
9.62909401029e-07
1.40370853112e-06
1.95065423003e-06
1.69164696286e-06
2.02364443867e-06
1.9060922985e-06
9.6109301561e-07
1.76027060349e-06
1.61489779315e-06
1.52021781143e-06
2.65382237837e-07
4.00858030641e-07
4.59145461675e-07
2.80832564507e-07
4.50331883e-07
5.46377446733e-07
8.92557517201e-07
9.44744903212e-07
2.78206915246e-07
1.02139546347e-06
6.24745466112e-07
1.10088718504e-06
3.16864256095e-07
9.68473049565e-07
9.74206047328e-07
1.11181910083e-06
1.46143861586e-06
2.1199020338e-06
8.83600620745e-07
6.61270902386e-06
2.87712595877e-06
9.20011861667e-07
4.5240404703e-07
1.79461445272e-06
5.2371907103e-06
2.26485402112e-06
1.11202907242e-06
1.14629511115e-06
1.0856177142e-06
1.7541650378e-06
2.51485544901e-06
1.01408477863e-06
1.04634467996e-05
1.1435132668e-05
4.811395501e-06
4.58059025273e-06
9.09066300735e-06
6.3514040997e-06
1.08486764843e-05
8.56805685085e-06
7.2884198999e-06
5.6203922557e-06
8.38087719253e-06
1.02554627692e-06
2.59214997996e-06
2.46340112309e-06
1.30132433294e-06
2.82661437082e-06
2.70130519438e-06
3.91558115817e-06
7.08345849871e-06
8.18216433468e-07
3.99323468525e-07
1.01173756187e-06
1.57508230652e-06
2.32700470484e-06
3.54542855497e-06
3.53670541223e-06
7.60323529286e-06
2.29245936286e-06
3.00377039716e-06
5.01633884118e-06
4.43796025644e-06
5.24627294887e-06
5.06558703812e-06
5.10766210284e-06
1.56536653598e-06
1.66778093941e-06
1.75091461214e-06
1.71882270601e-06
1.59872885155e-06
1.32573864795e-06
1.27461908947e-06
1.05525396985e-05
3.17320050885e-06
1.01108311218e-05
1.24758242313e-05
7.98935198264e-06
1.08436507453e-05
8.87347536282e-06
1.43463690133e-05
1.50477550793e-05
9.51969672974e-06
1.04058970041e-05
4.39607963069e-06
3.77799693381e-06
4.99755461757e-06
1.29256866452e-06
1.5820914866e-06
1.57777879254e-06
1.78095027529e-06
6.29575237564e-07
8.35344170167e-07
6.95401166327e-07
1.18567307287e-06
1.44974067874e-06
2.98723161211e-07
3.04027689443e-07
2.71160431068e-07
4.20178298007e-07
4.89568634417e-07
4.11273128757e-07
4.50341227392e-07
1.42125405205e-06
1.32340763173e-06
5.49414300974e-07
1.37820692627e-06
1.35370140199e-06
1.10480617325e-06
6.54902083576e-07
1.07984989195e-06
8.15889843826e-07
1.41892353988e-06
1.48403359313e-06
8.91643629689e-07
9.50206088524e-07
1.562668345e-06
9.12639585341e-07
5.43787599561e-07
8.98239682514e-07
4.42496729466e-07
2.54240646603e-07
2.33512793852e-07
2.05252363413e-07
2.12021177515e-07
8.29783723639e-07
4.71412873632e-07
4.10631463026e-07
7.29029010442e-07
4.89928743282e-07
4.04094258075e-07
3.5164963114e-07
7.48579533973e-07
2.55012059185e-07
5.14326242834e-07
1.04518986143e-06
8.80320287702e-07
7.02175931706e-07
8.85976067147e-07
8.3059808076e-07
4.66253026707e-07
3.72773174187e-07
3.94882191946e-07
9.01329930456e-07
1.44157590862e-06
7.89035759288e-07
9.63968278735e-07
9.06794792022e-07
8.24106722424e-07
9.32484486456e-07
8.49242172339e-07
5.9787935662e-07
5.69571499416e-07
2.41702566962e-07
6.92462758387e-07
5.67098593775e-07
5.83088878498e-07
5.71066348098e-07
5.57761457254e-07
1.25558139639e-06
1.42340645253e-06
2.57671755091e-06
2.50576387143e-06
9.92835297328e-07
1.52800474891e-06
2.13437930648e-06
2.77449614138e-06
3.83263639732e-06
1.96388901404e-06
5.7876967872e-07
8.20382482493e-07
9.04072063905e-07
8.54168482738e-07
2.82425832492e-06
9.45656690584e-07
8.62429693877e-07
9.12340833281e-07
1.31244528373e-06
3.40170661157e-06
3.91951433791e-06
2.08095810036e-06
2.2595536182e-06
7.51107539068e-07
5.63062117622e-07
7.68167300747e-07
2.37739406622e-06
7.51873889445e-07
9.02051649834e-07
9.4000909221e-07
7.68602450418e-07
8.10122112946e-07
6.39033128232e-07
7.43380687338e-07
5.66478994897e-07
5.616490292e-07
6.15061650264e-07
6.15988252571e-07
9.11895351693e-07
6.69111745869e-07
9.0965290765e-07
5.36447758938e-07
5.51953300113e-07
6.09648164313e-07
5.9563601646e-07
1.60667435271e-06
1.91652148883e-06
7.95454258073e-07
6.52005432377e-07
6.5429365047e-07
1.32196316868e-06
6.27681674015e-07
7.24952998654e-07
9.06944937657e-07
9.10603109021e-07
9.09525382722e-07
8.73418038101e-07
7.10523145475e-07
9.21058509763e-07
7.16970050498e-07
6.88351925749e-07
1.10645839657e-06
6.95999881678e-07
1.10678227983e-06
1.21343269174e-06
7.09031411283e-07
7.57958088003e-07
8.40213240767e-07
6.97641831995e-07
6.43643575031e-07
6.35098913955e-07
6.62096850185e-07
6.65696329868e-07
1.1311235616e-06
8.8937096653e-07
8.39790730391e-07
1.28927311822e-06
9.44784929119e-07
1.20798421359e-06
9.01549924594e-07
8.53244881113e-07
6.27675157428e-07
6.35158541615e-07
6.02112995166e-07
6.19989342881e-07
6.22330661463e-07
1.11393356644e-06
6.27793685773e-07
6.53781877092e-07
5.37899786174e-07
4.99370233027e-07
5.04297926495e-07
5.03385830062e-07
3.7345733997e-07
5.32748396385e-07
5.70925251598e-07
5.98670144451e-07
5.98273297332e-07
5.21401313156e-07
5.01823564556e-07
5.5910873312e-07
1.78942824966e-06
4.47249645546e-06
1.4408848078e-06
1.77221095179e-06
5.10468510015e-07
5.07759336411e-07
1.25870886075e-05
1.26684258877e-06
3.95721719638e-07
9.60316003537e-06
7.83642806345e-07
8.90294314785e-07
7.32610171532e-07
8.52244126199e-07
6.26169053465e-07
6.5146408032e-07
7.34919678099e-07
6.5731991515e-07
9.22080858708e-07
8.80747872222e-07
5.73691374479e-07
5.99510696358e-07
6.00749073445e-07
6.05503658122e-07
5.52298060473e-07
6.00157710709e-07
6.2082512337e-07
6.04985593269e-07
1.09320882976e-06
1.01640859761e-06
5.68253083138e-07
1.02180246217e-06
1.0302325897e-06
1.08491821363e-06
5.60287491655e-07
4.33475194015e-07
1.34621281847e-06
7.92066476078e-07
5.54043248325e-07
1.31144479325e-06
1.24354540953e-06