/*--------------------------------*- C++ -*----------------------------------*\
| =========                 |                                                 |
| \\      /  F ield         | OpenFOAM: The Open Source CFD Toolbox           |
|  \\    /   O peration     | Version:  2.3.1                                 |
|   \\  /    A nd           | Web:      www.OpenFOAM.org                      |
|    \\/     M anipulation  |                                                 |
\*---------------------------------------------------------------------------*/
FoamFile
{
    version     2.0;
    format      ascii;
    class       volScalarField;
    location    "1000";
    object      p;
}
// * * * * * * * * * * * * * * * * * * * * * * * * * * * * * * * * * * * * * //

dimensions      [1 -1 -2 0 0 0 0];

internalField   nonuniform List<scalar> 
143879
(
753.908811674
631.436006513
802.673298722
750.447637384
642.160510946
927.115694442
471.653718865
793.476168358
801.319038397
829.622397517
746.707106149
657.023970675
922.727351299
494.693544181
942.133126441
936.405837546
828.735769432
920.456723305
734.545211632
793.447570173
829.990062848
799.473484671
829.39274574
834.551738381
745.298103872
662.469510534
917.268085179
554.780738044
940.194134608
933.130679129
827.290864847
913.736647421
923.61715064
1056.05290095
1019.96856145
647.760301774
938.629759044
691.105338312
735.945864628
784.19685458
793.259787713
830.661828672
832.881087782
839.438304173
785.427739432
829.498968208
834.461826041
826.249000842
834.402015881
705.917835016
716.075651515
712.900917474
681.199582624
874.790519769
938.137690433
930.552846909
760.453726529
826.324130792
904.162354915
922.131878694
1052.90474689
1014.22706974
666.499712566
934.882233443
1076.87744499
1111.06914582
1081.25349591
1031.39833234
811.825092956
944.017201261
651.062469142
690.743794807
735.801172075
785.27885823
833.886993339
764.679668653
830.528555163
832.430494711
838.693789299
823.414876245
823.44199343
822.435003564
832.501844592
834.266302161
824.240255038
834.193087613
842.607937562
834.377711353
689.921689976
754.953231421
749.571364354
784.912131898
815.25601693
768.644562897
785.226054845
905.682107506
912.768554062
919.580258026
930.103893794
1048.88249445
934.969105751
1004.53972757
844.557595951
824.861303366
826.210045476
742.358871373
885.166680379
930.342459885
1075.30292251
1108.7656818
1077.5474724
1026.80587852
806.416441602
939.898092064
1131.60622973
1112.35240528
1169.64787485
1117.86437414
1000.28676799
1073.59034453
505.195300151
940.715013891
599.603478016
650.894407271
681.969207636
690.432981037
785.615330019
833.514580369
764.420497435
817.674342926
799.458069634
831.883953696
837.839742436
823.285805987
823.607623179
824.851370481
822.663801561
827.921853585
834.243047968
831.093573332
834.654504988
833.209019065
834.170871602
821.193029369
833.928421971
841.960158971
833.670857878
860.91562837
836.057123459
691.217757936
787.831671472
807.226461369
816.907931099
862.172889914
776.804326138
796.378185275
894.422057612
860.800020994
951.004286579
901.21951018
1072.89292457
816.35002666
1041.74381885
959.408494641
1042.45942952
1105.84305361
1076.28502258
946.934839142
995.925847292
1020.01082597
827.918967543
874.974093087
822.09913613
817.584261005
806.569719461
919.541144048
927.125349422
933.927693807
1129.5486109
1110.73320325
1166.35683536
1114.43105168
994.426934625
1069.22562015
559.358328764
925.399411772
1375.84602058
1236.81881724
1180.38824511
1219.39787264
1164.36463296
1111.25807113
1033.7143479
1067.99388151
837.448814569
958.224433811
133.495841959
596.48806385
581.480674945
650.923981614
681.046506
628.773929619
833.035748504
764.1447475
817.694075715
797.434399991
820.863143139
804.624436542
759.120785527
832.784753163
822.865641325
836.550969134
823.340656965
824.493260595
822.774908496
828.645113577
818.21200258
817.938128994
829.819447932
840.181443297
837.415027151
836.706052363
835.642779239
856.410599461
833.688324584
817.409476232
840.306865113
832.622883183
857.414423204
835.598162158
878.252296964
840.555997812
651.465046599
819.253665024
809.183127502
775.439190358
847.856144167
704.494834117
807.662566064
842.415819665
809.585911527
836.104248919
828.295162329
886.282308494
928.226437326
960.841981066
928.18067364
1060.0829415
1127.71539336
1108.40069235
901.143952628
1008.27098653
1016.1471235
982.451752785
1074.84144329
1077.68217284
1160.87290233
1109.38795454
976.947617329
1037.19303297
1015.34082984
985.80266298
1064.59091734
817.502579155
830.492746646
867.734233542
913.705264744
830.241892412
825.014553182
825.604214464
811.474009394
688.363492648
897.041739743
948.244931993
939.386126023
899.044219968
1350.48144682
1234.16525384
1178.8621422
1217.00792263
1160.7555809
1108.32560258
1027.15423608
1063.0257906
828.654734355
953.142759709
1460.71809385
1203.58332929
1373.20956608
1228.85392581
1249.71482626
1209.87875107
1128.07592098
1013.22262321
1098.70266375
552.525050733
970.894753903
154.461595829
170.730425566
592.996294916
579.664909936
492.695964285
678.761987369
627.082519719
690.202288888
829.37197234
817.818473856
797.097422744
820.993927219
804.353379681
756.617139314
819.997168615
795.107799661
778.937168213
829.768675944
820.571368729
824.109066275
822.667667157
820.609406016
818.408299652
829.791682669
818.267164855
818.252161156
830.338824254
826.204860332
820.163042513
822.616678247
826.461633973
834.353896029
825.568489897
832.423300661
843.394929325
828.564797151
823.83888995
836.956479871
856.461898836
834.563380454
877.951097413
839.263549934
893.603359669
857.527923537
655.033247698
621.077918177
679.185102544
814.447728253
790.949757291
679.91034937
789.708459838
844.354885742
850.262532815
834.234045707
865.758988938
752.681805708
886.367401398
912.751689814
949.114738088
945.2314773
940.336461257
949.984721704
819.931495541
1126.8413554
1122.96536654
1311.86911897
1229.42272137
1091.30540652
1175.30378811
994.963159953
767.498592675
1087.27553832
999.973716111
993.725830267
1105.68417365
1087.72564604
1134.02846947
1213.17388656
1152.99186138
1098.04843285
1103.50930273
1005.16705494
1073.19608182
1025.08399836
984.885159474
1051.80113856
1019.48955793
1055.15863573
805.18345958
883.99432444
864.270012651
929.780887647
953.74195085
863.707833648
799.680666216
797.401489497
813.826728938
834.537596774
938.982831291
977.903963922
971.862831048
920.263341115
894.151764276
954.027708791
1459.59425676
1202.19593239
1364.70483779
1227.12617247
1247.33022862
1207.79661536
1124.4765943
1005.71528878
1096.31817599
614.064223331
973.052743854
1690.4820545
1528.8810689
1272.82118697
1328.17244888
1522.35096019
1281.92612966
1287.96651719
1237.54217042
1200.0598325
1166.63068092
1060.9760348
1100.10709815
877.724421246
985.545259164
200.500344843
158.44826849
-27.5773577769
323.470225787
580.712764815
484.025761732
551.254609916
624.641950444
687.335134217
668.730606922
812.677444476
820.654636371
803.43081309
821.899171933
752.350790605
821.256602614
795.068377044
778.983157446
822.992548065
808.264252633
763.558161874
821.613005744
820.484811233
817.032336295
820.486912109
818.215674596
821.45870457
815.46818222
828.710396376
830.485109966
826.361384187
821.11664808
822.318959719
827.865833518
820.099470832
833.962114424
844.302773455
840.647253035
842.369408815
838.816140226
830.761013493
833.327300676
832.83829342
849.857585132
877.175475518
837.055133067
889.516684387
854.751941376
901.950898986
851.686095624
612.331076337
616.793046276
588.931890842
671.526117123
809.602702847
771.825419943
645.486912245
829.867221819
784.927592263
855.275499647
857.76472515
878.761437252
871.720728734
798.534133634
904.086126938
909.040248688
817.010271007
839.648408566
918.528870826
959.998182355
980.300007164
973.530435131
918.580014866
943.686739056
952.250371569
490.007204767
1133.20821523
1204.60943333
1452.99288879
1199.10974047
1352.49906663
1122.81690326
1168.24318783
1224.47908683
840.11746762
1105.52785254
1040.9315438
1014.80675956
1002.17759872
1005.67132461
1138.17890109
1075.65560132
1174.50156049
1184.36609197
1212.36813486
1243.0714056
1146.31584062
1208.20232788
1142.95119595
1104.27222789
1091.04742007
1116.74793059
990.492787803
1056.17793896
1037.35892452
1019.80072436
1064.37572392
1056.51906779
1021.00734226
994.589543777
1050.07461089
1089.76638906
893.778492942
879.55584283
962.870221354
880.061693068
845.971895933
809.440818466
787.435974483
837.321853937
878.767418258
866.79926676
788.523533197
952.633841727
922.785360042
980.431358216
979.265988313
973.231467432
959.722048269
881.904240678
971.550144772
1616.49567869
1528.4774751
1269.56083226
1323.6418217
1515.7373953
1278.58052976
1285.09633698
1235.35002411
1197.80936119
1163.79694112
1055.36313154
1096.02063364
871.549104812
980.447995765
1586.47989751
1588.47233651
1319.98474192
1365.83840084
1497.46742627
1308.42073049
1304.77415723
1264.97887446
1231.52655284
1167.07885155
1071.82350901
1127.70829526
499.595732695
1040.64624121
963.891846584
340.780644849
163.67015711
38.1079095803
307.382443783
347.019953921
361.57092381
478.881150219
543.198236277
447.790576691
686.160814341
664.659053211
694.654842825
807.768867645
803.847302029
816.515864074
823.774106047
794.009749804
801.509815707
733.868088961
778.594225254
823.141283907
808.497977492
762.376240771
834.097706256
800.780474599
769.383186786
816.523997075
818.213676555
812.201426977
824.904828164
820.981318461
814.256742465
814.227713737
820.901083129
812.839920018
813.581918081
855.372918302
829.502022157
816.500214897
827.214912758
829.764986701
820.423032355
833.881521319
844.234902802
840.062561606
830.814068007
834.969904732
859.316913307
848.307365728
880.439861538
826.613304377
850.893843072
825.650781216
833.27256332
857.221410692
850.752801622
871.269917865
884.566481253
851.702489402
900.822223354
850.607380431
891.925044563
889.323528029
869.52754151
617.58386603
624.344214666
800.051123499
696.212195614
717.256294656
820.755065873
850.654511234
851.440847156
873.257507739
880.954488793
913.461453638
807.379292062
763.087381894
888.120566567
864.680569572
938.209292686
928.7964066
889.167784997
918.250794973
723.915038947
814.046056447
808.70191291
871.990629324
856.999925967
862.050092944
789.692707086
957.389585601
979.985643985
976.815220295
996.54673219
958.586809952
882.66765021
1020.7450255
795.067045707
1256.59519323
1093.36136757
600.099012722
1078.73507632
1386.59170393
1492.22720213
1524.74328443
1189.52213392
1262.6904828
1402.40856634
1316.60051149
1505.11426049
1170.00859008
1151.87314903
1212.88387782
1213.65953991
1274.25759804
1096.89907325
1156.27645683
1040.98895812
1060.27647273
996.891717317
1015.80367435
1149.00677235
1099.33829606
1193.1306642
1221.18498366
1206.34942236
1244.56181015
1238.29088863
1284.02336091
1231.42069049
1214.2502817
1193.98799586
1154.63281607
1119.63925061
1101.26577981
1161.37260528
1001.87514762
1044.97508818
1085.39133564
1038.89345491
1004.44773429
1063.26778654
1000.86924161
1048.95091389
1075.28098922
1090.31103204
920.54993677
904.63757815
902.03939609
940.652635702
968.099756048
883.82292846
896.762979407
781.819082605
868.648914896
851.970747107
849.050663093
868.53093245
809.20679285
849.843614889
879.640164937
873.882183261
949.696234866
910.461859519
992.187545174
988.432739754
961.216036721
1004.57747205
962.147425582
990.619836521
929.573841654
953.733608501
978.987339777
1571.57649872
1587.1847378
1318.04973503
1361.61325412
1486.25635906
1305.83329573
1302.68868735
1263.14047894
1230.03382328
1164.22118462
1067.19603527
1123.96575694
570.68173711
1036.88980793
966.916008922
1648.7814178
1663.92284282
1552.0484252
1352.50324912
1412.40072636
1568.46398687
1341.62348609
1293.45914733
1328.84386491
1274.45030979
1261.35496948
1227.9982558
1190.54518812
1116.17881382
869.536809812
1052.15231732
967.46064548
217.296162005
225.1078309
295.958468264
349.089940961
354.676307794
89.8367877966
399.259176179
516.528172553
531.385032068
436.028130968
541.080085207
659.599869878
690.987188791
636.374486714
769.302286384
822.758602951
810.53811282
823.446777037
824.058749524
810.433803566
797.828843296
784.83618851
785.321778205
760.466111092
834.029613371
800.280939956
768.088490559
872.486807099
809.663274164
740.405266505
822.178868582
812.809043656
821.011990989
808.877516407
819.490677176
817.383463271
833.776727972
811.760738127
803.894398276
819.145066657
845.54983709
847.879933171
763.442118095
796.479060765
828.067644285
842.294052093
818.679442991
825.374404097
827.93720027
838.17837618
831.062783779
835.474402916
858.838025566
849.624662768
882.977085398
821.851943693
835.298738435
905.123864319
910.336078997
902.385385472
828.75510507
823.867812189
843.687385597
837.62796704
852.350561297
868.127346093
850.094327529
879.431662745
899.232854196
847.796459774
887.025856033
886.381422756
869.256999514
883.566385637
871.007949916
842.100749887
398.493576656
664.656947337
696.800636996
743.180229484
872.810187897
878.514538306
849.579556377
842.366842459
884.520105368
940.580029129
786.919165769
894.268627843
914.862540511
853.938971661
919.674701448
959.205758345
955.421083988
919.921539862
945.144198756
924.71819339
912.237884677
924.596730177
654.565094305
729.206471145
774.722029957
837.486037721
876.476446076
843.927964817
842.72422766
850.76831906
901.546312561
866.637770717
894.36684796
878.311922551
779.750257548
817.280166568
698.599483889
992.053625633
983.251889821
1004.72584871
1035.23405398
1001.04147896
920.188990034
1017.67758599
822.063884649
1039.17968122
1245.71285742
1297.03468731
1162.30687925
1089.78591023
388.344369742
1123.60816096
1251.14496445
1534.1623162
1499.56434382
1582.70243941
1241.99777318
1242.12297838
1318.43986663
1398.03496608
1315.19653808
1353.50686294
1469.34681845
1182.27818005
1204.48699692
1243.12824021
1251.80709269
1301.59985622
1099.31753386
1119.44533257
1116.57964126
1076.96880301
1052.4621263
1011.88658146
974.91933214
1138.32542459
1098.29247136
1184.31172964
1227.37153416
1235.94985902
1217.52849194
1271.12937689
1272.44220202
1289.454419
1299.12229574
1220.17414511
1259.91439246
1215.66372374
1187.17257895
1227.15825839
1157.1327816
1138.02396868
1078.95693738
1160.02106779
1088.23231634
1159.03387713
1043.56647616
1081.19021244
1058.75875758
1011.16690184
1036.59139456
1039.02906733
1059.38977256
1079.14446456
1117.03346598
925.35711879
912.159928137
964.191452059
898.257227203
874.395645424
874.329950031
851.152134822
888.116792498
906.725086537
859.087189144
898.447895427
804.099816888
822.991136655
867.005897016
823.918749365
875.014497848
742.878128214
947.559737275
937.076823962
1009.34862827
998.416048049
980.121035623
1009.66256188
945.02338542
996.064580902
1013.35214587
956.85279378
894.187952161
972.380228494
977.909268685
1029.93522855
957.540395797
1638.46841884
1532.05291216
1553.1529649
1350.0755061
1405.06468699
1555.91261284
1338.09747788
1291.31864809
1326.79623974
1272.83311708
1259.82234228
1226.38094827
1189.24053068
1112.24166995
857.674873769
1047.94072796
961.871936131
1664.79569228
1617.78755004
1546.16782193
1368.56254365
1434.52172484
1531.01389222
1346.57178301
1304.67294835
1330.15568022
1299.2198092
1283.42526302
1249.774549
1176.77104774
1130.76278311
459.174988741
1102.72432193
1015.73013097
943.11007218
407.097965714
382.251741093
342.746905314
343.190361856
217.896649345
398.100334221
442.001645615
456.99407879
557.619030784
417.922393136
532.319950961
515.102146324
667.873820559
687.496180139
629.571042827
694.808277382
815.673463295
813.413191564
816.718843867
815.417660838
834.288704122
835.709031912
814.438414574
801.025856547
751.998750927
736.794895352
764.935321046
872.630175958
809.547056036
738.197503572
881.129084295
797.067528782
831.768635096
822.917978069
819.453119265
813.220562157
813.158285706
813.057796609
828.33065129
836.067419538
822.292996045
841.33625653
857.853128537
830.606507524
817.171075765
793.945651262
828.949920575
857.708859937
849.089747543
864.691858557
859.501441723
797.937674845
790.808474107
839.399533982
834.037647002
886.028664823
822.47698179
836.612958446
905.223577963
909.831440614
900.111084047
826.363927259
829.895276044
887.878889011
902.410276304
933.227008183
936.325501535
936.026465436
829.969475816
848.462197222
838.632377461
866.860421619
859.527733951
847.382691651
879.030396934
871.318855363
887.481348862
881.236994209
886.801139954
866.29683387
883.042678899
871.016502699
842.406251399
872.083445046
859.077877123
847.79199766
829.218322278
500.559101135
659.581980909
876.000383744
829.736523982
896.064944463
892.516155722
848.447742272
925.394387229
846.344308451
935.042951319
886.100523189
830.907294364
925.600728214
943.411286825
970.42490946
974.958588937
964.856873601
926.504293743
943.969831244
958.730170158
924.24680476
947.639522277
933.344736304
610.309916043
679.221474762
755.017754359
680.200824304
856.501403759
764.41833952
854.561652572
873.294676132
869.175769549
842.073548185
785.475726329
837.170378626
908.338060922
907.849127285
899.449645574
902.324867187
890.970343936
865.036519452
809.972985928
689.551294504
739.393680265
991.182683939
990.654697064
1010.99479353
1025.46306085
1036.56781864
1053.81648574
990.523009663
918.580037083
1051.05736569
917.947623334
1015.58110173
1291.87187663
1313.17350016
1162.56078459
1156.91769437
1271.40522524
1556.55210276
1617.77934528
1330.43143574
1523.03634689
1572.07276747
1556.00087906
1258.71882564
1321.33454507
1299.9556819
1345.78308438
1446.61758971
1356.70693683
1338.92366689
1394.24957296
1481.50034916
1532.01241903
1202.03057329
1299.91184337
1246.89522837
1287.69698315
1289.5554008
1332.90907564
1129.62832349
1135.65665349
1156.30763642
1071.83762957
1122.1263604
981.385934506
1134.12760939
1205.87219568
1266.6812079
1239.78099041
1203.63433098
1228.85413777
1277.01288477
1287.85007989
1296.11950647
1287.09792898
1326.92538811
1237.32934314
1256.60608028
1269.88203893
1199.14602685
1174.79027375
1221.33560747
1197.42386626
1169.07562444
1222.33809607
1257.27240128
1223.49689174
1140.62045956
1156.57037787
1112.41249252
1082.62250092
1147.44548013
1099.68814854
1153.21382231
1185.17618424
1059.5878618
1071.05698749
1110.52589651
1049.71527712
1065.35305361
1050.66679867
1060.15742874
1105.63214509
1087.58238521
1109.82821701
929.077421379
945.936509918
915.264415982
963.950204555
922.353611845
898.748119195
891.247250976
852.255301823
899.132462414
929.369484739
936.264219024
847.341266474
880.375019543
912.230627853
865.560430939
847.436149338
852.934601957
824.155092226
844.802117551
874.219544274
876.840913669
857.748366458
976.435066184
991.497655389
1017.15114075
984.393152611
998.618246304
1028.22067169
953.485727152
978.548678585
945.413642243
975.089023176
939.805196764
1026.73284448
1037.78409646
962.121308434
1659.83399455
1587.73763668
1549.48964145
1364.25899946
1429.81792292
1523.05284656
1344.20015358
1303.4911813
1328.44157094
1297.73428115
1282.4970773
1248.51912623
1173.92994474
1127.45567602
534.3656123
1097.94014099
1010.90053652
945.91949022
1693.60658455
1614.84638642
1674.26819159
1533.19545018
1408.93018104
1468.5570727
1568.51543839
1366.62377544
1319.26023278
1347.79457663
1309.19133639
1281.3865599
1305.01057279
1254.87488173
1194.17507354
791.197793048
1118.0155285
1034.91112144
957.232669946
494.62952606
463.95588787
390.832433903
352.983819675
423.956371327
451.784362168
490.377246663
251.666025303
467.603980681
521.44442819
505.907987143
595.791676871
676.577674092
622.426990245
691.508692935
674.795584285
794.548173988
839.644642754
856.876584503
875.394867047
811.287462978
791.78602616
731.36880517
735.100537073
880.960095943
795.806650068
858.200708632
926.305513406
804.523904513
825.101173133
823.963783005
844.277821694
814.31292719
815.439015322
830.906934461
815.398247055
820.967961605
820.819443698
836.891422761
834.955974021
837.975689594
857.515132766
906.316129058
845.933045346
815.007904104
837.776174851
825.470881804
863.507900335
873.497547296
850.260104489
909.331169153
852.811077735
879.880691612
841.464839636
860.16327827
838.049243126
886.998472929
834.769439092
898.974197615
825.915573418
829.824810051
887.638141898
901.646827959
932.842926059
935.900874789
937.013373074
842.447112831
839.195087498
940.295448003
1005.0628248
999.907345565
975.515239889
965.313194793
812.472078087
822.724481786
824.100593114
837.937683434
860.978138934
841.508073818
833.726488879
862.616620084
864.721134432
870.027467741
869.103819629
880.707129953
867.794746421
838.204488206
868.97469485
858.771087531
847.780230536
828.91912518
843.442003022
830.944611498
835.478056695
814.000940958
826.72099673
567.985668334
328.617854491
616.673838457
867.926996151
876.655138343
892.324983242
893.876844923
941.96526674
898.504830882
840.272359007
927.003996591
960.753582376
905.981448162
827.835558107
947.090361268
983.662767453
1009.86153804
949.918852455
966.475553589
1012.78959747
987.619135604
971.252924907
919.282284927
962.849288549
541.826003401
647.930273717
739.095307387
702.628986994
807.004701945
863.735979641
872.486745529
864.646994746
900.263038638
874.353260887
847.350359329
784.727677864
829.262983152
833.910051259
841.813257742
907.150305308
921.437780786
892.763668705
910.878992124
906.529696842
887.459726538
668.580509199
708.291521049
997.367951339
1018.98609089
1035.18524764
1030.95353096
1013.80217016
1065.29600432
1076.37898868
1011.42541975
970.90983037
1130.26526353
699.129149931
1093.91994313
1107.30842859
1198.1721429
1169.29748067
1181.93340014
1421.64351511
1513.5818957
1599.62673347
1649.2513431
1304.96712803
1525.628817
1521.60009269
1569.04071368
1554.43728334
1547.44379193
1239.75671976
1318.919543
1317.09978718
1339.81599828
1358.56685441
1455.07525109
1409.15968941
1375.24157051
1422.00540088
1422.55213598
1509.9991731
1490.15273932
1511.70089012
1308.9629075
1241.7959588
1316.06415909
1340.5269556
1151.18437353
1163.44552026
1109.33792484
1067.77760668
1110.75120124
985.511131347
1186.39291608
1273.80743118
1268.29119559
1269.55529764
1237.54781355
1215.98752646
1262.89821567
1225.13680843
1312.34233431
1318.00807019
1292.56311309
1282.53930813
1301.20195144
1325.91170803
1235.11390841
1261.09375071
1267.02110132
1296.84344689
1164.75162662
1205.75203137
1178.51664081
1232.39677502
1195.34096418
1203.52674037
1165.91662635
1224.29266892
1242.89795284
1256.24017821
1280.59065519
1217.63722385
1246.24523258
1154.65385672
1147.82014247
1124.88219404
1101.63881083
1119.46845418
1096.71863817
1124.51787217
1190.14539236
1190.86930898
1169.19581371
1045.7113491
1079.19128221
1077.3513918
1059.19985703
1123.05062538
1060.63274869
1068.27262947
1034.0012882
1058.40416005
1053.4032838
1089.93794318
1109.94189826
1121.30656399
1074.92212944
1109.95973111
943.671118121
911.587763229
942.725342738
922.063765744
864.965521128
910.495176037
936.768818712
957.745333878
968.043631667
911.182566055
911.97644521
924.104441539
843.725450604
827.526505691
860.41529753
827.012555438
840.82240918
840.034068057
868.550144317
857.974214599
817.196903196
848.106455651
723.089770145
1007.48934175
992.862037063
1039.05879036
988.471198116
1022.32836612
1054.50325632
940.903568528
957.08272636
993.69279297
936.259094931
945.489007682
1009.49511894
987.942134092
902.301599243
1037.10464249
1039.35269223
1037.90751432
1089.57417054
1002.13959713
970.201029392
939.173413314
1677.62386948
1613.78480493
1516.39048048
1533.35875658
1406.2225216
1463.23283774
1561.95513023
1363.36554472
1318.62303715
1345.94532176
1309.20865603
1280.13564283
1304.53573769
1253.31444465
1191.84649486
778.92684084
1115.65970632
1031.03827354
948.387018195
1684.45459213
1612.10195705
1661.14742648
1530.30285951
1401.98318531
1477.07628766
1533.94763384
1367.9218035
1325.69182238
1347.09769325
1321.91961685
1307.29609379
1325.53923539
1229.29883693
1284.57857762
1163.95790764
419.28223842
1083.38398473
1009.59786872
939.202267516
819.780172844
447.714984481
448.953159485
491.591469745
367.697625904
522.637137042
513.004649936
562.8835233
489.542653411
587.777688637
600.566696298
638.982349889
685.61304646
669.150194271
725.270322213
846.559486501
851.861962852
872.597753674
862.482215418
881.718321092
796.834678862
857.958607689
926.384202155
801.918859032
877.297522165
935.09485641
837.353589591
825.282550803
863.704210537
812.952801958
828.316130733
827.353022354
807.546503622
823.23314758
830.873411897
822.924969088
891.312846411
823.360371269
873.182494062
902.46112109
899.459411116
935.516665915
848.021934458
847.207261511
850.091378155
943.660429321
898.883170052
852.270101028
939.297017539
936.634653618
842.685736264
858.366458753
864.238362826
862.90413011
854.691331075
842.197707295
885.019907444
882.944562514
861.950148629
938.705583557
843.04178667
843.279431321
939.615662701
1003.77834998
998.704010909
975.232281372
964.576435162
839.555356269
896.572868785
1018.5446669
1044.43684045
1046.26538558
1031.76898147
1006.56276558
976.655677563
812.095787358
825.787307173
843.053608386
848.260802188
860.038781258
846.206939816
857.695254278
865.846963944
869.272991394
857.867796168
839.315724509
830.511360893
824.468672428
842.889330232
824.283541553
832.57344945
814.571168389
827.882036351
820.667711238
807.016841682
806.012146025
810.514030959
822.9135294
462.343418159
889.728776261
905.317385911
892.050009159
943.032327778
907.094623472
914.929112593
842.471379211
960.671530475
919.69069631
976.588556206
899.166233146
952.737174919
866.777613502
789.977209215
982.533912033
994.734462232
945.807502918
1002.35985813
1012.04995437
1028.29285586
966.573617173
992.690420775
1016.32064968
1006.87872659
978.711577403
931.80411756
926.654529549
973.982262219
964.721652806
474.999427137
596.490270547
596.812638071
684.246801257
611.596746629
539.879599797
883.257254677
823.84436803
827.059939977
847.752259268
911.016956894
880.233509488
914.330470969
886.072729758
843.316252692
794.679749441
855.743361496
809.511292501
754.265101718
808.277750764
944.09712227
882.942414404
931.119589951
927.247635519
913.534743909
653.128657965
684.039088534
1042.96425387
1035.60248572
1045.74703587
1077.97779974
1114.06875545
1013.78911435
718.524748772
1186.13418013
1145.00684126
1077.16924692
1438.92270924
1539.30543682
1388.96056156
1592.35324809
1625.21806091
1639.26019036
1608.90153654
1002.85375261
1323.19086978
1488.24215416
1271.02662559
1488.12059448
1554.48117393
1541.59113938
1539.59922148
1532.00215038
1247.43078013
1327.45146751
1347.1932936
1356.73389998
1348.55048417
1399.57690203
1463.76380438
1435.81775251
1381.42656441
1436.20323265
1388.23299554
1430.13171004
1455.35211559
1513.05867507
1493.05845849
1546.95334034
1338.27089853
1265.87450232
1329.52373253
1355.47067976
1336.19565488
1359.46393666
1145.46687116
1197.91071483
1118.07921407
1067.88721361
1111.07074825
974.936146217
1202.06194498
1291.33546782
1294.42610585
1259.93227857
1234.61474447
1219.77263487
1272.51593869
1238.42126375
1342.58432633
1310.87303594
1317.15524314
1287.41008059
1294.00357569
1300.23569098
1315.95409474
1322.33268757
1343.76022836
1230.43224073
1249.10221523
1279.00945234
1264.98485446
1297.00708343
1297.30181598
1308.29012613
1165.24038969
1219.59820747
1189.88268239
1168.57863682
1168.53622032
1219.6015415
1247.47228795
1193.74054974
1194.11392553
1190.32110938
1151.10447829
1229.42979826
1247.17449738
1275.47740621
1277.71823046
1302.56671269
1236.53859982
1250.8585045
1187.05328278
1129.43569354
1117.93614741
1119.35390942
1079.81270848
1122.44253633
1157.8272665
1187.66388519
1161.11774202
1187.88356462
1057.6671191
1074.92790087
1101.90392778
1064.1325986
1066.1540236
1151.26931484
1026.96203912
1066.62791273
1073.20143132
1054.46225621
1095.23584855
1085.78182234
1120.21109466
1101.60360838
880.101463442
915.598561091
921.962234437
958.138531275
976.196645161
907.672628017
930.915731495
825.454756809
824.455056884
830.345331864
858.49019835
837.089292027
816.221938365
887.821232857
906.830155367
906.433921199
819.569664497
862.660810183
832.828272474
868.649996389
856.540077337
861.550350578
785.814882488
1011.5011854
998.763194686
1008.56519574
1033.27089596
1062.85639274
1000.89621681
1033.64960081
1061.64549352
954.111066767
962.119797712
982.950221753
998.383407602
943.072223771
984.052320066
1020.77804538
961.180491166
993.081930717
1047.93459002
1017.94861747
1057.30218714
1089.68882122
1109.22516848
1004.55157762
1019.9418605
958.865823112
914.83366188
948.546694482
1676.10132663
1610.46758807
1635.91971486
1527.8867324
1398.3214292
1473.86260232
1531.06171274
1365.24817733
1325.03442376
1346.06333656
1321.37306496
1307.04064534
1324.87499533
1227.36376219
1282.66809586
1160.93999819
477.694125566
1078.2495166
1005.10445222
927.68325336
1673.0724316
1593.83769356
1592.52849615
1530.80171445
1543.34029722
1424.65329195
1493.25875845
1447.22316679
1382.8958567
1340.5757869
1356.61509762
1335.57244001
1307.4070049
1331.8920966
1339.10544002
1341.41602462
1243.62379944
1291.09388554
1181.87462384
716.795292077
1086.57546517
1035.69942951
944.32578303
817.651824424
602.688973234
503.897603991
582.869949676
465.275090621
518.058718926
516.884773428
547.165574094
218.600732626
576.459013602
594.297820692
642.266965066
656.810897033
720.983488127
714.278184936
852.56653564
882.479496643
875.592325191
858.445868653
927.040744835
829.980023645
797.720751769
876.062502702
935.201146208
832.701870978
919.509203803
968.796706463
896.129917712
811.557393226
831.426932967
810.754869427
842.214083327
830.066585846
849.042419441
809.71893373
893.040028442
941.804331114
817.483987273
859.148848048
916.450816035
888.126166771
1001.35991305
946.839007788
997.908089459
848.757534955
826.16554597
924.674639483
868.401333332
892.963258997
947.291337039
977.380482652
865.875776667
899.883330429
859.160375284
867.653231015
885.408491423
891.36601029
867.301385057
949.001579862
963.778627171
841.684272766
896.126850741
1017.59183614
1043.25209224
1044.8026842
1030.58644649
1005.07606025
976.589003152
871.559144531
916.214223532