/*--------------------------------*- C++ -*----------------------------------*\
  =========                 |
  \\      /  F ield         | OpenFOAM: The Open Source CFD Toolbox
   \\    /   O peration     | Website:  https://openfoam.org
    \\  /    A nd           | Version:  10
     \\/     M anipulation  |
\*---------------------------------------------------------------------------*/
FoamFile
{
    format      ascii;
    class       volScalarField;
    location    "43";
    object      V;
}
// * * * * * * * * * * * * * * * * * * * * * * * * * * * * * * * * * * * * * //

dimensions      [0 3 0 0 0 0 0];

internalField   nonuniform List<scalar> 
70210
(
1.10752e-09
1.16048e-09
1.74066e-09
8.59136e-10
1.11436e-09
8.64763e-10
9.6664e-10
9.82581e-10
1.21842e-09
8.91099e-10
6.22717e-10
1.04089e-09
1.13806e-09
1.10162e-09
7.81682e-10
1.04509e-09
7.00453e-10
9.94521e-10
9.69538e-10
5.29922e-10
1.2638e-09
1.39202e-09
1.61165e-09
4.37323e-10
7.46682e-10
5.12307e-10
1.01038e-09
7.85969e-10
1.36131e-09
9.18651e-10
1.8417e-09
5.67511e-10
8.44823e-10
9.75902e-10
4.91867e-10
7.19924e-10
6.5029e-10
9.98194e-10
9.28003e-10
1.53863e-09
3.45495e-10
6.87337e-10
1.18751e-09
2.07024e-09
1.19637e-09
1.03624e-09
5.21277e-10
3.72973e-10
7.22789e-10
5.08596e-10
8.34183e-10
9.94911e-10
9.32798e-10
1.6768e-09
1.30506e-09
7.49474e-10
1.36565e-09
1.44213e-09
1.60605e-09
3.98991e-10
6.10376e-10
7.87394e-10
9.49555e-10
5.05196e-10
4.74313e-10
7.22872e-10
6.45314e-10
9.13238e-10
1.06598e-09
9.68719e-10
1.38596e-09
1.43978e-09
4.01006e-10
8.72208e-10
1.12782e-09
7.90677e-10
1.31804e-09
2.05082e-09
1.63786e-09
1.0515e-09
1.55847e-09
2.62705e-10
5.03531e-10
3.70281e-10
5.97694e-10
7.21093e-10
8.64284e-10
1.00252e-09
6.3068e-10
8.17432e-10
9.32523e-10
1.28152e-09
9.90001e-10
5.40487e-10
8.18442e-10
7.75253e-10
1.14493e-09
7.5039e-10
1.24518e-09
6.46329e-10
4.27928e-10
5.72477e-10
7.19862e-10
6.3817e-10
3.34309e-10
5.07407e-10
4.7114e-10
6.63582e-10
8.27237e-10
9.03228e-10
1.34143e-09
9.74472e-10
8.28268e-10
9.35391e-10
1.70543e-09
1.10412e-09
8.00319e-10
1.96372e-09
8.53434e-10
1.09894e-09
6.93686e-10
7.86752e-10
8.22344e-10
2.58468e-09
2.24008e-09
1.20606e-09
1.65413e-09
1.44742e-09
2.60813e-10
4.16771e-10
5.06401e-10
6.33038e-10
7.19339e-10
4.57225e-10
1.16482e-09
8.14011e-10
5.60115e-10
1.03377e-09
8.76019e-10
9.82145e-10
7.80233e-10
6.79447e-10
7.09678e-10
9.81685e-10
3.78466e-10
5.89684e-10
9.12146e-10
8.36327e-10
1.00823e-09
7.75252e-10
9.07696e-10
7.26661e-10
4.02868e-10
5.29822e-10
9.6689e-10
7.91388e-10
3.32275e-10
4.66767e-10
5.97375e-10
6.58171e-10
7.1149e-10
1.27084e-09
1.20343e-09
9.36427e-10
1.21123e-09
9.93829e-10
1.0261e-09
6.76498e-10
9.29777e-10
1.32714e-09
7.53487e-10
1.44093e-09
8.09634e-10
1.32313e-09
1.05087e-09
5.22634e-10
5.62528e-10
5.85746e-10
4.51858e-10
5.77884e-10
2.42191e-09
1.36883e-09
1.6765e-09
2.787e-09
1.65363e-09
1.29764e-09
4.4732e-10
5.02184e-10
3.21248e-10
8.51893e-10
5.93349e-10
4.08156e-10
6.31742e-10
9.67638e-10
1.19609e-09
8.65332e-10
8.92778e-10
7.21029e-10
1.29878e-09
8.46963e-10
9.41792e-10
6.75143e-10
7.28559e-10
7.89846e-10
3.37869e-10
6.67504e-10
6.83851e-10
4.12699e-10
6.70537e-10
8.51469e-10
7.73988e-10
9.99621e-10
6.82644e-10
1.42245e-09
7.12018e-10
7.06207e-10
3.7548e-10
7.0235e-10
8.39098e-10
4.18631e-10
4.63721e-10
5.01868e-10
9.1657e-10
6.7839e-10
7.46447e-10
1.08728e-09
1.0568e-09
1.20679e-09
5.50401e-10
7.31387e-10
9.60664e-10
1.39283e-09
1.13058e-09
1.05017e-09
7.8656e-10
7.58949e-10
9.41567e-10
1.13845e-09
6.90776e-10
1.20642e-09
1.29796e-09
1.43596e-09
1.35317e-09
4.64151e-10
6.7464e-10
1.22931e-09
6.67269e-10
5.17571e-10
4.86063e-10
6.90575e-10
1.63162e-09
1.28999e-09
1.39081e-09
2.0541e-09
1.17513e-09
1.46265e-09
1.50447e-09
1.09716e-09
6.01474e-10
4.18028e-10
2.8762e-10
4.42397e-10
7.09159e-10
8.68904e-10
6.30614e-10
5.2444e-10
6.78123e-10
1.07146e-09
7.66798e-10
1.26067e-09
9.54373e-10
7.87966e-10
1.06739e-09
7.55575e-10
8.54661e-10
7.78711e-10
7.10856e-10
3.23716e-10
5.42252e-10
6.1105e-10
3.84824e-10
6.98936e-10
9.39926e-10
4.74817e-10
6.2293e-10
8.48577e-10
1.02954e-09
1.0572e-09
9.57796e-10
9.40085e-10
5.02274e-10
5.92311e-10
4.93967e-10
6.07047e-10
7.43759e-10
6.41731e-10
4.76228e-10
5.25279e-10
7.65891e-10
8.71159e-10
6.96272e-10
5.69061e-10
1.05876e-09
8.23001e-10
8.37528e-10
8.61932e-10
8.21918e-10
4.04114e-10
8.31591e-10
1.15262e-09
1.32852e-09
6.47181e-10
1.30389e-09
8.04552e-10
7.29421e-10
7.3411e-10
1.54995e-09
1.22503e-09
8.66143e-10
8.30923e-10
1.39648e-09
1.05749e-09
2.02088e-09
1.82956e-09
1.63791e-09
4.25679e-10
6.23624e-10
1.27123e-09
1.6243e-09
7.68252e-10
9.42478e-10
1.22611e-09
1.82949e-09
8.93983e-10
1.60095e-09
1.47982e-09
1.60925e-09
1.35836e-09
8.23884e-10
1.07973e-09
1.28942e-09
1.06745e-09
1.4194e-09
5.01202e-10
6.11136e-10
4.44293e-10
3.69103e-10
4.7442e-10
7.78552e-10
5.58211e-10
6.90943e-10
5.75361e-10
5.59183e-10
9.49891e-10
9.85479e-10
6.78756e-10
6.97813e-10
1.29711e-09
1.09556e-09
9.65934e-10
8.17027e-10
9.36505e-10
6.67174e-10
1.63397e-09
7.10623e-10
5.98792e-10
3.58119e-10
4.56606e-10
3.26492e-10
2.70412e-10
7.01204e-10
3.98379e-10
6.096e-10
1.08675e-09
8.91793e-10
4.39892e-10
6.12724e-10
7.51026e-10
6.30292e-10
9.27395e-10
7.98659e-10
1.03157e-09
4.71281e-10
4.2594e-10
5.40608e-10
8.96981e-10
5.37774e-10
6.10255e-10
4.88922e-10
3.99187e-10
6.25367e-10
5.95444e-10
4.69975e-10
5.25464e-10
5.32652e-10
5.86088e-10
5.4937e-10
6.75955e-10
9.13741e-10
5.63295e-10
7.89172e-10
1.34297e-09
7.98443e-10
4.89441e-10
6.05398e-10
9.85292e-10
1.00867e-09
1.09929e-09
7.81617e-10
7.45168e-10
1.10246e-09
6.7676e-10
1.35568e-09
6.02933e-10
1.00629e-09
5.74936e-10
8.22559e-10
1.13405e-09
5.68261e-10
1.34857e-09
6.95876e-10
9.5995e-10
1.42333e-09
1.66996e-09
1.5633e-09
1.12188e-09
1.85415e-09
1.09723e-09
6.12783e-10
7.75113e-10
9.54282e-10
1.48684e-09
1.6213e-09
1.3735e-09
1.14139e-09
9.65994e-10
1.44554e-09
1.38643e-09
1.08923e-09
1.10883e-09
1.72904e-09
7.34773e-10
8.17117e-10
9.45796e-10
7.14922e-10
1.12754e-09
5.47553e-10
3.93119e-10
4.84921e-10
4.05866e-10
3.90497e-10
6.90282e-10
7.16333e-10
4.93922e-10
5.08822e-10
5.91611e-10
4.86438e-10
4.35167e-10
8.98392e-10
8.83017e-10
9.08245e-10
5.83463e-10
5.93665e-10
1.00319e-09
1.30884e-09
7.00672e-10
7.54379e-10
7.37198e-10
7.54734e-10
7.93496e-10
6.75039e-10
7.08367e-10
3.86592e-10
4.15792e-10
4.17705e-10
3.52052e-10
6.07753e-10
7.67539e-10
7.07856e-10
8.96497e-10
1.21705e-09
4.29363e-10
5.2935e-10
4.56068e-10
6.68897e-10
6.746e-10
5.44867e-10
5.46571e-10
3.80373e-10
6.50898e-10
8.40476e-10
4.39458e-10
4.18088e-10
3.30461e-10
3.67682e-10
3.74401e-10
4.08885e-10
5.75481e-10
5.78166e-10
3.57157e-10
5.41437e-10
4.36958e-10
4.15931e-10
5.99614e-10
5.25346e-10
9.92008e-10
6.2443e-10
9.15945e-10
6.15372e-10
7.4582e-10
1.14677e-09
6.75469e-10
1.01552e-09
8.27076e-10
6.87814e-10
6.17215e-10
9.5302e-10
1.76269e-09
1.01644e-09
9.16581e-10
6.73545e-10
9.97251e-10
5.37164e-10
1.09027e-09
4.02519e-10
7.07051e-10
1.08134e-09
6.21656e-10
4.47114e-10
5.54621e-10
6.85962e-10
1.12712e-09
6.44648e-10
7.27113e-10
9.13983e-10
1.37152e-09
1.16962e-09
1.21363e-09
9.51335e-10
8.8918e-10
1.24654e-09
1.07228e-09
8.99266e-10
4.87233e-10
1.30914e-09
1.36758e-09
1.3328e-09
1.29355e-09
1.21408e-09
1.35217e-09
1.09109e-09
9.18099e-10
1.17448e-09
9.86742e-10
1.07777e-09
1.40477e-09
1.11583e-09
9.75684e-10
1.43391e-09
1.09291e-09
5.29784e-10
8.69638e-10
1.0176e-09
9.26756e-10
4.85475e-10
5.03897e-10
3.47659e-10
3.58762e-10
4.15258e-10
3.428e-10
3.06039e-10
6.45823e-10
6.60999e-10
4.24299e-10
4.34474e-10
5.33543e-10
5.52109e-10
5.17329e-10
9.76687e-10
8.07679e-10
6.96508e-10
8.89547e-10
7.4583e-10
8.00683e-10
1.02202e-09
1.189e-09
5.52245e-10
7.6515e-10
6.28817e-10
7.57334e-10
6.80867e-10
6.23711e-10
5.44406e-10
7.37172e-10
4.0744e-10
5.04168e-10
6.13898e-10
4.19724e-10
4.11159e-10
6.28579e-10
4.8623e-10
8.68975e-10
8.93693e-10
1.55169e-09
1.15697e-09
3.19952e-10
4.68387e-10
4.87932e-10
3.96656e-10
6.47369e-10
3.58787e-10
5.95602e-10
4.57523e-10
6.10577e-10
2.87429e-10
4.05588e-10
4.05807e-10
2.51832e-10
3.80892e-10
3.06948e-10
2.91864e-10
4.22611e-10
4.47227e-10
5.44648e-10
5.96647e-10
4.97878e-10
4.87512e-10
5.11643e-10
4.00381e-10
4.98491e-10
8.62328e-10
7.23973e-10
9.9643e-10
7.94808e-10
6.7668e-10
5.69968e-10
7.19618e-10
2.12118e-09
9.4509e-10
5.01882e-10
1.47773e-09
1.12207e-09
8.53402e-10
7.19907e-10
6.96012e-10
1.00313e-09
7.67243e-10
8.81484e-10
8.57413e-10
9.35178e-10
6.33164e-10
1.13681e-09
1.14899e-09
1.09166e-09
4.56197e-10
3.46387e-10
5.09241e-10
5.80292e-10
5.68794e-10
6.60487e-10
4.99564e-10
8.91145e-10
6.65685e-10
6.77038e-10
9.97866e-10
1.14627e-09
9.22977e-10
7.10079e-10
9.67777e-10
1.253e-09
8.87347e-10
1.02917e-09
8.10253e-10
1.35484e-09
8.81504e-10
6.38915e-10
3.83259e-10
9.31023e-10
7.89418e-10
1.54654e-09
8.44915e-10
8.50921e-10
8.53266e-10
9.02453e-10
8.62859e-10
7.07542e-10
5.50011e-10
7.75045e-10
8.83674e-10
1.00489e-09
1.08324e-09
7.1223e-10
9.82271e-10
7.95596e-10
3.70873e-10
6.24744e-10
7.36948e-10
9.70929e-10
4.51302e-10
4.65276e-10
2.98544e-10
3.06985e-10
3.74394e-10
3.89855e-10
3.64996e-10
7.02004e-10
5.84142e-10
6.5004e-10
5.38825e-10
5.83401e-10
5.48789e-10
4.9706e-10
5.37962e-10
7.62136e-10
9.05009e-10
7.88818e-10
7.32103e-10
8.14691e-10
8.10126e-10
1.02428e-09
8.09719e-10
8.2873e-10
6.97226e-10
1.08034e-09
7.05792e-10
8.87693e-10
9.40778e-10
8.80082e-10
1.06824e-09
1.22656e-09
8.19263e-10
7.01976e-10
3.83882e-10
1.05405e-09
5.1884e-10
6.24735e-10
1.48558e-09
9.03992e-10
9.67393e-10
3.42249e-10
2.7931e-10
4.69061e-10
4.3153e-10
7.60376e-10
3.54187e-10
4.29448e-10
3.14642e-10
3.84225e-10
4.1786e-10
3.49413e-10
3.42172e-10
3.5909e-10
2.80541e-10
3.50642e-10
4.95522e-10
5.21286e-10
6.16591e-10
5.20515e-10
5.04207e-10
6.74425e-10
4.1846e-10
4.84614e-10
7.17645e-10
1.71332e-09
7.83391e-10
9.54804e-10
5.11298e-10
6.74069e-10
6.76948e-10
7.95726e-10
6.29797e-10
1.5719e-09
2.10364e-09
8.92814e-10
4.87277e-10
1.03956e-09
1.15783e-09
9.28976e-10
7.61866e-10
5.60094e-10
8.24931e-10
2.02092e-09
6.80896e-10
8.07049e-10
8.6421e-10
6.15121e-10
1.1962e-09
8.98203e-10
6.02364e-10
1.08336e-09
6.22947e-10
9.6537e-10
1.06139e-09
5.88157e-10
4.69725e-10
9.68693e-10
9.11e-10
9.24116e-10
8.93096e-10
3.70216e-10
6.21105e-10
6.73212e-10
6.37999e-10
6.47501e-10
1.21152e-09
7.87061e-10
1.0631e-09
7.21261e-10
6.31938e-10
4.89142e-10
9.05878e-10
8.90106e-10
9.02579e-10
9.05085e-10
9.09038e-10
4.62742e-10
3.67935e-10
3.2207e-10
1.23983e-09
8.95244e-10
6.15028e-10
6.16477e-10
6.16636e-10
6.56371e-10
6.26009e-10
6.16629e-10
4.5178e-10
6.16829e-10
5.64092e-10
6.42527e-10
7.27868e-10
7.8709e-10
5.02352e-10
7.13726e-10
9.70538e-10
5.60107e-10
4.36463e-10
5.17282e-10
7.03855e-10
9.34531e-10
8.33274e-10
4.90536e-10
4.09668e-10
4.58796e-10
3.77639e-10
4.11146e-10
3.85413e-10
3.50518e-10
3.79358e-10
6.49736e-10
5.72519e-10
5.87965e-10
5.84468e-10
5.17938e-10
6.78411e-10
5.96209e-10
7.9321e-10
8.16409e-10
7.01174e-10
7.55652e-10
9.21729e-10
1.14876e-09
7.67975e-10
1.07544e-09
5.90395e-10
9.27073e-10
8.99209e-10
1.58501e-09
7.11403e-10
1.20927e-09
1.02969e-09
8.92522e-10
1.38546e-09
1.02377e-09
4.56203e-10
1.59192e-09
9.12142e-10
6.48625e-10
4.19786e-10
1.08914e-09
1.02966e-09
5.21112e-10
6.3709e-10
3.29363e-10
3.03025e-10
5.52939e-10
3.50141e-10
3.66021e-10
4.32222e-10
3.65071e-10
3.54024e-10
4.72206e-10
2.93022e-10
3.41233e-10
5.01656e-10
4.92565e-10
4.56281e-10
6.7033e-10
4.05778e-10
5.99243e-10
6.54018e-10
6.66835e-10
4.63297e-10
5.64875e-10
1.35266e-09
1.45198e-09
6.15837e-10
4.74275e-10
8.20985e-10
7.43736e-10
8.70413e-10
5.70827e-10
4.30517e-10
4.3429e-10
6.56244e-10
1.44244e-09
1.31377e-09
1.10405e-09
5.78803e-10
1.15182e-09
1.30073e-09
9.7413e-10
9.13747e-10
5.78343e-10
8.346e-10
1.33264e-09
8.62132e-10
6.15545e-10
5.58978e-10
1.10445e-09
1.48769e-09
9.21199e-10
4.49715e-10
1.14982e-09
1.60952e-09
1.46645e-09
7.87553e-10
4.2778e-10
5.02053e-10
5.93198e-10
7.12327e-10
6.15828e-10
8.12214e-10
6.17974e-10
7.6879e-10
4.3719e-10
3.87675e-10
8.94426e-10
8.96604e-10
1.03098e-09
6.47404e-10
6.04102e-10
6.56303e-10
7.61538e-10
7.66017e-10
6.55341e-10
1.04422e-09
6.53688e-10
6.59365e-10
5.46222e-10
4.75829e-10
1.23567e-09
9.53405e-10
6.2541e-10
4.33142e-10
4.32796e-10
4.32294e-10
4.62018e-10
4.40033e-10
5.47789e-10
6.62951e-10
4.91563e-10
3.97244e-10
4.52191e-10
5.10942e-10
5.5367e-10
5.01946e-10
7.06177e-10
4.94378e-10
6.81424e-10
6.05284e-10
9.53444e-10
4.53709e-10
4.02359e-10
4.11973e-10
4.09298e-10
3.66404e-10
4.74985e-10
4.19681e-10
5.92995e-10
5.05081e-10
6.65741e-10
5.21823e-10
7.41874e-10
7.42226e-10
6.2147e-10
6.41914e-10
4.46288e-10
1.17017e-09
8.30136e-10
6.038e-10
1.58984e-09
6.39733e-10
3.77931e-10
1.02223e-09
4.59237e-10
7.36048e-10
5.48126e-10
8.98709e-10
1.56975e-09
6.30814e-10
9.41949e-10
1.06908e-09
1.55707e-09
8.39438e-10
1.10557e-09
1.66784e-09
8.93527e-10
2.04738e-09
7.03841e-10
4.31373e-10
8.70461e-10
7.68949e-10
8.65714e-10
3.89089e-10
3.47561e-10
3.20406e-10
4.6952e-10
2.84923e-10
4.21411e-10
4.60517e-10
4.67094e-10
3.25661e-10
3.94383e-10
5.41942e-10
4.75248e-10
7.07204e-10
6.59694e-10
6.05972e-10
6.71692e-10
5.69487e-10
4.488e-10
6.40581e-10
8.75049e-10
1.20173e-09
4.37768e-10
5.31111e-10
5.10012e-10
7.76372e-10
6.87235e-10
5.15383e-10
5.00154e-10
5.80329e-10
4.96958e-10
8.14201e-10
1.57148e-09
1.47415e-09
1.19543e-09
1.24118e-09
1.12696e-09
6.44734e-10
1.02872e-09
1.14011e-09
8.99495e-10
9.8867e-10
8.42286e-10
4.82878e-10
9.79506e-10
9.12269e-10
8.27542e-10
8.69298e-10
8.30194e-10
5.01991e-10
1.13535e-09
1.24116e-09
1.09379e-09
8.16818e-10
1.027e-09
5.0278e-10
5.07124e-10
6.57681e-10
1.72381e-09
5.00727e-10
1.2611e-09
3.69051e-10
6.51083e-10
4.10988e-10
3.63872e-10
7.72594e-10
6.97431e-10
4.60783e-10
5.51707e-10
8.80531e-10
4.60703e-10
7.53436e-10
8.1854e-10
4.58083e-10
4.63215e-10
7.73988e-10
3.42094e-10
7.98345e-10
4.9705e-10
4.80243e-10
4.25641e-10
6.94907e-10
1.55535e-09
9.43192e-10
4.16933e-10
3.5348e-10
4.66661e-10
3.69012e-10
5.19113e-10
5.2133e-10
4.56608e-10
4.66002e-10
6.02153e-10
6.52607e-10
7.73412e-10
8.00772e-10
7.05114e-10
3.58102e-10
6.23372e-10
9.54494e-10
9.6675e-10
3.20783e-10
1.21368e-09
3.99548e-10
6.62412e-10
8.13498e-10
7.29945e-10
9.81039e-10
1.21475e-09
1.00113e-09
1.33252e-09
1.53545e-09
1.0626e-09
1.03243e-09
1.30775e-09
7.36236e-10
1.12285e-09
9.91064e-10
1.13863e-09
9.58436e-10
1.90532e-09
1.28543e-09
1.08275e-09
4.00324e-10
7.43336e-10
5.9751e-10
1.15133e-09
4.62876e-10
1.23808e-09
3.81819e-10
3.33645e-10
4.97129e-10
4.62272e-10
4.26009e-10
4.73383e-10
3.99324e-10
3.15517e-10
4.46778e-10
5.65622e-10
5.88178e-10
6.60595e-10
7.13357e-10
6.18848e-10
6.32869e-10
6.10018e-10
7.44173e-10
4.75035e-10
5.01547e-10
9.11757e-10
6.64525e-10
2.78673e-10
5.05016e-10
8.26723e-10
9.05938e-10
5.81591e-10
5.22871e-10
7.74521e-10
3.40307e-10
4.93587e-10
9.33632e-10
1.20559e-09
7.36544e-10
1.59448e-09
5.0651e-10
8.10956e-10
6.54657e-10
9.46988e-10
1.28782e-09
1.08587e-09
1.16378e-09
9.46039e-10
8.25093e-10
8.90074e-10
8.47629e-10
1.38923e-09
1.02391e-09
9.12156e-10
6.39038e-10
6.87608e-10
8.68355e-10
9.78845e-10
6.63204e-10
8.43852e-10
6.73502e-10
1.85117e-09
9.28959e-10
1.06273e-09
8.66165e-10
1.00383e-09
1.50329e-09
1.72517e-09
3.81402e-10
6.74609e-10
3.13127e-10
4.95655e-10
3.72012e-10
3.439e-10
6.72218e-10
4.75904e-10
8.42923e-10
3.87359e-10
6.30974e-10
7.94411e-10
5.27719e-10
5.90744e-10
4.89605e-10
6.83649e-10
7.74269e-10
3.23194e-10
3.27657e-10
4.23142e-10
4.5882e-10
5.42466e-10
5.62106e-10
5.19817e-10
6.99535e-10
7.12125e-10
7.66991e-10
7.4875e-10
7.20024e-10
8.25159e-10
3.79648e-10
6.6473e-10
5.31591e-10
4.15089e-10
7.22372e-10
6.47143e-10
7.57905e-10
1.36005e-09
1.55267e-09
9.21005e-10
1.41317e-09
9.98839e-10
1.67695e-09
9.9267e-10
1.18515e-09
1.71174e-09
1.48472e-09
1.01147e-09
9.34542e-10
1.27771e-09
1.14863e-09
8.88885e-10
8.85147e-10
1.26583e-09
1.76545e-09
8.84849e-10
4.74583e-10
8.92032e-10
5.2008e-10
8.46039e-10
3.98437e-10
4.12261e-10
4.6747e-10
4.9965e-10
4.38038e-10
4.45624e-10
4.31846e-10
5.22527e-10
3.3496e-10
3.50666e-10
5.97487e-10
6.73927e-10
6.53698e-10
6.22738e-10
7.44973e-10
7.1099e-10
4.86529e-10
6.27557e-10
6.04731e-10
6.82929e-10
5.80992e-10
1.04843e-09
5.08763e-10
8.74413e-10
7.15891e-10
1.103e-09
9.15009e-10
6.17753e-10
7.37505e-10
1.02321e-09
5.77241e-10
9.84695e-10
4.03723e-10
6.84033e-10
1.412e-09
7.81625e-10
7.44809e-10
8.26572e-10
9.19986e-10
9.54658e-10
1.0308e-09
1.55003e-09
9.33429e-10
1.12894e-09
7.07468e-10
6.75033e-10
4.45376e-10
5.44946e-10
1.16765e-09
9.05243e-10
1.01253e-09
7.3892e-10
8.31364e-10
1.18417e-09
1.0794e-09
9.44678e-10
9.94033e-10
9.01901e-10
7.53082e-10
8.71153e-10
6.17912e-10
1.60801e-09
1.062e-09
6.28341e-10
4.68304e-10
6.68956e-10
6.86628e-10
4.38678e-10
5.78599e-10
6.66816e-10
4.40145e-10
5.67904e-10
4.18006e-10
6.22129e-10
4.1381e-10
4.8013e-10
5.56437e-10
1.12246e-09
9.46394e-10
3.6876e-10
4.90813e-10
5.00548e-10
5.37238e-10
5.26047e-10
5.06315e-10
5.79418e-10
4.84167e-10
5.53898e-10
7.25391e-10
7.31038e-10
6.76916e-10
6.46687e-10
6.44027e-10
3.94079e-10
5.87333e-10
3.97604e-10
1.00375e-09
4.37939e-10
7.32143e-10
1.87852e-09
1.56136e-09
1.48714e-09
1.00565e-09
1.87707e-09
7.75961e-10
9.65245e-10
9.52692e-10
8.22368e-10
1.06223e-09
7.87676e-10
8.95547e-10
8.75676e-10
1.49755e-09
1.37967e-09
8.50806e-10
1.05475e-09
8.86507e-10
1.10608e-09
7.64673e-10
5.24114e-10
6.54657e-10
4.18894e-10
4.72151e-10
4.62604e-10
4.40774e-10
5.24348e-10
4.99924e-10
3.44066e-10
4.40702e-10
4.2211e-10
6.30511e-10
7.38981e-10
6.71162e-10
6.95895e-10
6.79571e-10
6.60081e-10
7.29622e-10
5.97139e-10
6.30924e-10
4.85997e-10
6.375e-10
5.92744e-10
7.55957e-10
1.52549e-09
8.90703e-10
8.92884e-10
8.93688e-10
5.81015e-10
1.02187e-09
1.53006e-09
9.3856e-10
1.15918e-09
1.11341e-09
7.42439e-10
1.14821e-09
8.70302e-10
7.84343e-10
8.70882e-10
8.23544e-10
1.08091e-09
8.39935e-10
7.80883e-10
1.02808e-09
1.01799e-09
7.44741e-10
9.80597e-10
8.89067e-10
7.37323e-10
3.88344e-10
8.33482e-10
1.05609e-09
1.83011e-09
9.65383e-10
1.8594e-09
8.37914e-10
7.17629e-10
6.54896e-10
7.7583e-10
6.36242e-10
1.00908e-09
8.11153e-10
9.85421e-10
5.46288e-10
8.92523e-10
3.78231e-10
9.58106e-10
9.80931e-10
4.27848e-10
4.90612e-10
7.0744e-10
6.16335e-10
5.91003e-10
6.94082e-10
7.52762e-10
3.95538e-10
4.49204e-10
9.11992e-10
5.22243e-10
3.88804e-10
6.79351e-10
6.78668e-10
9.86144e-10
5.98649e-10
3.40975e-10
3.90957e-10
5.10044e-10
5.12445e-10
4.75207e-10
4.55171e-10
4.53314e-10
5.33632e-10
7.30646e-10
7.6831e-10
5.71205e-10
6.35306e-10
7.57551e-10
6.48888e-10
5.59569e-10
6.98367e-10
4.38793e-10
1.4515e-09
1.46956e-09
1.08606e-09
1.07127e-09
9.52995e-10
1.22437e-09
9.39615e-10
1.44573e-09
8.87041e-10
1.29003e-09
1.09889e-09
1.46148e-09
8.32114e-10
1.07018e-09
9.6144e-10
9.11597e-10
1.13177e-09
1.57408e-09
1.2053e-09
1.08014e-09
8.42009e-10
8.46869e-10
9.98402e-10
1.49084e-09
7.91256e-10
8.86933e-10
4.41424e-10
5.17921e-10
4.73143e-10
4.904e-10
4.78502e-10
4.65189e-10
5.10613e-10
4.17124e-10
4.42922e-10
3.42373e-10
6.45981e-10
6.85394e-10
6.12919e-10
5.67429e-10
7.09494e-10
7.04092e-10
6.05144e-10
5.57957e-10
5.51245e-10
5.9038e-10
8.30119e-10
9.91285e-10
1.166e-09
1.55377e-09
1.01646e-09
8.1927e-10
4.18239e-10
1.35236e-09
1.51244e-09
9.13518e-10
1.5531e-09
8.26359e-10
1.07972e-09
1.17666e-09
8.73459e-10
9.01198e-10
7.47553e-10
7.07956e-10
6.96197e-10
5.90417e-10
9.27495e-10
9.63306e-10
6.04544e-10
7.6909e-10
6.61151e-10
8.77502e-10
9.34981e-10
3.90979e-10
7.81554e-10
9.03713e-10
1.51852e-09
1.02008e-09
1.0665e-09
8.97076e-10
2.33044e-09
1.26227e-09
9.3221e-10
7.05674e-10
7.23404e-10
7.2675e-10
6.95065e-10
6.52534e-10
5.87358e-10
9.66927e-10
1.17247e-09
2.87401e-10
8.2377e-10
7.4778e-10
9.93597e-10
7.55382e-10
7.4596e-10
3.08765e-10
4.89369e-10
8.42726e-10
3.14741e-10
3.81236e-10
3.77637e-10
4.74528e-10
4.33976e-10
7.49348e-10
3.76154e-10
5.13892e-10
5.38852e-10
4.01261e-10
4.46481e-10
5.292e-10
4.58339e-10
3.95196e-10
6.894e-10
7.93557e-10
5.9863e-10
6.61555e-10
6.08418e-10
7.32716e-10
6.49677e-10
6.09517e-10
1.07069e-09
1.06239e-09
1.0497e-09
1.2328e-09
1.00758e-09
5.74177e-10
9.22109e-10
7.57469e-10
1.17589e-09
1.05807e-09
1.07671e-09
9.16829e-10
1.50582e-09
2.02607e-09
9.52809e-10
9.43635e-10
1.06764e-09
1.79296e-09
4.50622e-10
7.03969e-10
5.58098e-10
8.24409e-10
9.0424e-10
1.39407e-09
9.27123e-10
6.32659e-10
3.10447e-10
5.93324e-10
4.53817e-10
4.83467e-10
4.32148e-10
3.99029e-10
4.97766e-10
4.96291e-10
4.24096e-10
3.90093e-10
3.8957e-10
7.40021e-10
6.67741e-10
6.74129e-10
6.94477e-10
6.3492e-10
7.84971e-10
6.48189e-10
6.7467e-10
5.17553e-10
4.79981e-10
6.24576e-10
4.33733e-10
1.19183e-09
1.39084e-09
6.01735e-10
1.05544e-09
3.223e-10
9.08055e-10
1.48539e-09
1.4629e-09
1.06271e-09
8.80278e-10
1.52279e-09
8.96534e-10
1.50942e-09
1.13503e-09
7.95853e-10
8.95643e-10
8.08594e-10
7.32136e-10
7.83505e-10
8.25199e-10
8.02068e-10
6.44595e-10
1.1924e-09
8.51777e-10
5.47723e-10
4.72761e-10
8.57566e-10
1.12408e-09
3.00103e-09
1.29606e-09
8.23705e-10
1.08782e-09
9.9085e-10
8.22797e-10
1.81887e-09
9.81794e-10
9.87336e-10
1.09526e-09
8.68729e-10
7.07305e-10
5.79745e-10
6.89089e-10
7.66128e-10
2.91372e-10
6.08695e-10
5.98472e-10
8.01853e-10
8.53218e-10
4.36292e-10
5.22782e-10
7.02507e-10
9.39441e-10
2.68982e-10
3.0494e-10
4.83654e-10
5.56012e-10
4.18568e-10
4.65005e-10
4.25123e-10
5.18462e-10
4.59238e-10
7.28777e-10
7.77314e-10
6.64385e-10
6.83918e-10
6.01798e-10
6.55647e-10
6.78004e-10
4.61687e-10
9.14126e-10
1.29724e-09
9.8219e-10
1.07253e-09
1.14373e-09
8.97387e-10
9.03273e-10
1.30189e-09
1.50763e-09
8.54167e-10
1.78566e-09
1.30026e-09
1.25974e-09
9.50541e-10
7.28095e-10
7.84654e-10
3.50937e-10
9.76646e-10
4.66518e-10
4.68031e-10
7.84924e-10
1.11414e-09
1.27056e-09
1.1638e-09
1.41271e-09
1.09866e-09
5.98525e-10
4.54634e-10
4.03444e-10
6.72269e-10
5.21134e-10
4.71345e-10
4.74205e-10
4.86115e-10
4.45446e-10
5.56255e-10
4.5441e-10
4.73471e-10
3.65994e-10
3.40033e-10
4.44418e-10
7.65714e-10
6.41272e-10
5.69983e-10
6.16086e-10
7.32819e-10
6.00969e-10
6.39677e-10
5.20041e-10
5.64041e-10
6.94238e-10
6.83651e-10
6.05211e-10
5.75021e-10
7.83999e-10
1.34512e-09
4.0467e-10
1.06375e-09
1.56229e-09
1.08242e-09
6.36619e-10
1.00918e-09
9.89015e-10
1.29907e-09
1.3628e-09
5.90422e-10
9.20548e-10
7.96389e-10
1.25058e-09
1.04418e-09
7.15915e-10
6.38646e-10
8.34395e-10
1.77741e-09
1.34256e-09
1.966e-09
7.33172e-10
1.09431e-09
1.54199e-09
1.08739e-09
1.07864e-09
7.28559e-10
7.00148e-10
1.26491e-09
1.30941e-09
9.44708e-10
1.00636e-09
1.1527e-09
1.15398e-09
7.7404e-10
6.32764e-10
1.16569e-09
7.01913e-10
6.01283e-10
4.48336e-10
8.52886e-10
8.19512e-10
9.3969e-10
1.3039e-09
5.11195e-10
5.44572e-10
4.66591e-10
4.80306e-10
4.24516e-10
4.60661e-10
4.78696e-10
8.23038e-10
6.20097e-10
6.91816e-10
8.2001e-10
8.47471e-10
8.02274e-10
7.31905e-10
6.52413e-10
1.23397e-09
7.89355e-10
8.61439e-10
1.11339e-09
1.04962e-09
1.0385e-09
1.07171e-09
1.02972e-09
9.55038e-10
1.80618e-09
1.30279e-09
1.30035e-09
6.10543e-10
8.1101e-10
1.28062e-09
8.1276e-10
8.47959e-10
9.35244e-10
3.74149e-10
6.60246e-10
1.66984e-09
1.09871e-09
1.79911e-09
1.34273e-09
1.25262e-09
1.86063e-09
1.22095e-09
4.37092e-10
4.06873e-10
6.18139e-10
5.38132e-10
4.51741e-10
4.01166e-10
4.32141e-10
5.20739e-10
4.24084e-10
4.535e-10
3.68359e-10
3.99835e-10
4.93034e-10
9.74558e-10
7.21212e-10
5.1743e-10
8.04946e-10
7.95519e-10
8.47385e-10
8.57757e-10
8.52164e-10
9.61565e-10
9.22493e-10
4.8182e-10
1.86691e-09
1.52233e-09
5.62401e-10
9.06953e-10
4.73275e-10
9.53329e-10
1.23521e-09
8.10445e-10
1.19034e-09
8.63276e-10
6.3528e-10
5.70606e-10
7.09743e-10
7.99981e-10
9.53194e-10
1.02086e-09
8.62581e-10
8.51345e-10
6.70212e-10
8.88436e-10
8.34473e-10
6.48501e-10
1.00891e-09
1.53035e-09
1.15615e-09
1.04475e-09
1.19588e-09
6.92764e-10
9.96165e-10
1.06398e-09
1.09857e-09
1.54605e-09
7.44642e-10
1.10062e-09
1.37846e-09
1.65051e-09
6.67827e-10
9.49104e-10
1.41356e-09
9.00993e-10
5.59622e-10
7.58439e-10
8.1787e-10
1.13818e-09
1.86625e-09
5.75586e-10
4.35939e-10
4.87081e-10
5.81199e-10
5.96992e-10
5.65877e-10
7.57296e-10
6.94081e-10
9.32149e-10
9.92671e-10
8.96911e-10
9.39354e-10
9.41289e-10
1.32157e-09
5.77084e-10
6.60596e-10
1.34588e-09
6.32247e-10
1.02759e-09
8.72004e-10
3.96107e-10
1.09626e-09
1.0235e-09
1.18367e-09
1.2056e-09
3.94882e-10
1.10409e-09
6.66438e-10
7.52469e-10
1.27654e-09
2.10945e-09
1.78527e-09
2.2832e-09
1.41526e-09
8.34613e-10
6.84316e-10
5.08466e-10
3.62837e-10
5.72193e-10
5.64395e-10
5.99992e-10
6.11217e-10
6.01502e-10
6.82097e-10
1.11296e-09
5.90152e-10
5.17152e-10
7.70512e-10
8.77288e-10
1.02044e-09
1.2199e-09
1.03162e-09
1.37086e-09
6.48752e-10
2.48222e-09
1.64728e-09
6.90076e-10
1.17496e-09
9.34928e-10
1.24621e-09
9.68096e-10
8.47184e-10
8.68473e-10
5.04951e-10
7.59593e-10
8.92373e-10
8.86393e-10
8.0585e-10
1.06331e-09
7.24017e-10
6.69615e-10
1.1886e-09
7.46374e-10
1.24667e-09
8.80555e-10
8.37517e-10
1.28487e-09
1.14657e-09
1.23688e-09
7.82119e-10
8.29431e-10
9.17964e-10
8.28426e-10
9.99236e-10
1.99261e-09
1.12105e-09
2.30717e-09
9.06061e-10
1.43961e-09
1.18384e-09
1.79349e-09
1.78991e-09
1.71618e-09
1.71427e-09
5.90581e-10
1.1139e-09
8.48869e-10
6.72665e-10
1.28342e-09
2.2692e-09
1.86622e-09
5.30548e-10
4.88301e-10
6.56341e-10
7.05063e-10
6.34924e-10
9.7159e-10
8.76743e-10
1.31385e-09
1.03457e-09
6.34717e-10
1.37118e-09
1.01412e-09
1.19739e-09
1.35625e-09
6.15871e-10
1.50915e-09
6.43167e-10
4.96286e-10
7.96298e-10
8.17785e-10
1.75323e-09
7.583e-10
6.01423e-10
1.60268e-09
2.3763e-09
1.98364e-09
1.76005e-09
2.47645e-09
2.24898e-09
1.76293e-09
7.85613e-10
4.15719e-10
3.64368e-10
5.46439e-10
6.20314e-10
7.25182e-10
8.6614e-10
7.27274e-10
9.69848e-10
1.19887e-09
6.25385e-10
5.54124e-10
8.44717e-10
9.05834e-10
8.79091e-10
1.30069e-09
1.25656e-09
1.37066e-09
3.39593e-09
2.12762e-09
1.26422e-09
1.5323e-09
9.53921e-10
8.53097e-10
1.98359e-09
9.80627e-10
1.09056e-09
5.98345e-10
5.46884e-10
6.11368e-10
9.61387e-10
6.3567e-10
1.60299e-09
1.0504e-09
1.15933e-09
1.26125e-09
1.18788e-09
1.18048e-09
8.25913e-10
5.59193e-10
1.2536e-09
8.15648e-10
1.38168e-09
1.20097e-09
1.33421e-09
9.16132e-10
1.45084e-09
1.18555e-09
1.63647e-09
1.64062e-09
7.66411e-10
5.07762e-10
1.19988e-09
2.01463e-09
1.33543e-09
2.00529e-09
1.69273e-09
8.41497e-10
6.97139e-10
1.14301e-09
1.4765e-09
2.18195e-09
2.28681e-09
1.75458e-09
6.88098e-10
6.23507e-10
9.30323e-10
7.29886e-10
9.93006e-10
1.29193e-09
1.29341e-09
1.28671e-09
9.6459e-10
5.00473e-10
1.20465e-09
1.41187e-09
1.71824e-09
2.52623e-09
1.3963e-09
7.53499e-10
1.0939e-09
9.34797e-10
1.83107e-09
1.6242e-09
1.77441e-09
1.09433e-09
8.81813e-10
1.16287e-09
1.83638e-09
1.59089e-09
2.30838e-09
1.29215e-09
1.6533e-09
1.77693e-09
1.87226e-09
1.32522e-09
8.4363e-10
4.4399e-10
3.90716e-10
5.9874e-10
6.39851e-10
6.25864e-10
9.14414e-10
8.87966e-10
9.69453e-10
9.27456e-10
1.1186e-09
9.21383e-10
1.01206e-09
8.93284e-10
9.75421e-10
1.24274e-09
1.29571e-09
1.60105e-09
2.09773e-09
2.32049e-09
1.28942e-09
1.57246e-09
7.34311e-10
2.03561e-09
1.52901e-09
2.03912e-09
2.75936e-09
1.63156e-09
1.56907e-09
1.17254e-09
7.80764e-10
1.62557e-09
1.29642e-09
1.34582e-09
1.19069e-09
1.69681e-09
1.36404e-09
1.60353e-09
1.31665e-09
1.44779e-09
7.00474e-10
4.66329e-10
1.15328e-09
1.09007e-09
1.19625e-09
1.76519e-09
1.51725e-09
1.05694e-09
2.30513e-09
2.43437e-09
2.01633e-09
1.57232e-09
9.31208e-10
1.28237e-09
1.60174e-09
1.96699e-09
1.27348e-09
7.01186e-10
9.15656e-10
9.15272e-10
9.07026e-10
1.02974e-09
1.19655e-09
1.2952e-09
9.54899e-10
9.71103e-10
7.97841e-10
1.57308e-09
1.59351e-09
1.78154e-09
1.42853e-09
1.15615e-09
7.29233e-10
1.72039e-09
1.2886e-09
1.26457e-09
1.30182e-09
1.40493e-09
1.83776e-09
1.23856e-09
1.42719e-09
1.08584e-09
1.50991e-09
1.57775e-09
9.14778e-10
1.29514e-09
1.39017e-09
1.38495e-09
8.9752e-10
6.55617e-10
7.88455e-10
6.52246e-10
7.14909e-10
6.37103e-10
6.88136e-10
8.79011e-10
9.19849e-10
9.52116e-10
9.51004e-10
9.92803e-10
8.0853e-10
8.75266e-10
7.79221e-10
1.48476e-09
1.44812e-09
9.46149e-10
1.01653e-09
1.23444e-09
1.38679e-09
1.12759e-09
1.18193e-09
2.82094e-09
2.3359e-09
1.58934e-09
1.63359e-09
1.77531e-09
1.42982e-09
8.07021e-10
5.27367e-10
1.64451e-09
1.97742e-09
1.62876e-09
8.58291e-10
1.22117e-09
1.22037e-09
1.52149e-09
1.47154e-09
1.32069e-09
1.12563e-09
2.62832e-09
9.8514e-10
8.58126e-10
1.06691e-09
1.06303e-09
1.61454e-09
2.40064e-09
1.54731e-09
1.36365e-09
8.08902e-10
6.52477e-10
1.9138e-09
1.3116e-09
1.66424e-09
1.62355e-09
1.3145e-09
7.30134e-10
8.47922e-10
9.12999e-10
6.78291e-10
6.86339e-10
8.58198e-10
1.03904e-09
9.0834e-10
6.74376e-10
6.61036e-10
1.24533e-09
1.87473e-09
1.06645e-09
1.25843e-09
1.12302e-09
1.38181e-09
1.09417e-09
1.28078e-09
1.18689e-09
1.10637e-09
1.22414e-09
1.14439e-09
1.08646e-09
1.07708e-09
1.14981e-09
1.15464e-09
1.1778e-09
8.02145e-10
6.80508e-10
1.02332e-09
1.32722e-09
1.06595e-09
7.68191e-10
1.00622e-09
6.7579e-10
6.72564e-10
7.04271e-10
5.75398e-10
6.18099e-10
5.52806e-10
1.05238e-09
1.02622e-09
6.74049e-10
8.76327e-10
6.33217e-10
9.0814e-10
9.77427e-10
8.28577e-10
7.8637e-10
1.13952e-09
1.22664e-09
9.77041e-10
2.07612e-09
1.85609e-09
1.16234e-09
1.11027e-09
2.03422e-09
1.41128e-09
1.3609e-09
7.40592e-10
1.48622e-09
1.50952e-09
1.06802e-09
9.1124e-10
8.79952e-10
1.61931e-09
7.03367e-10
1.59797e-09
1.7928e-09
1.13707e-09
1.28449e-09
9.8712e-10
1.96821e-09
8.69502e-10
1.04096e-09
9.22424e-10
2.0133e-09
2.02692e-09
2.40692e-09
1.72964e-09
6.19911e-10
1.43908e-09
9.88186e-10
1.54185e-09
1.78133e-09
1.52108e-09
7.32661e-10
1.27988e-09
1.18151e-09
6.10984e-10
7.38143e-10
6.42375e-10
4.78416e-10
4.68726e-10
8.37442e-10
8.79559e-10
8.37849e-10
8.00605e-10
7.53598e-10
7.42717e-10
1.39269e-09
1.19927e-09
9.91834e-10
1.61636e-09
1.42124e-09
1.33427e-09
1.08903e-09
1.19721e-09
9.12335e-10
1.07411e-09
1.23821e-09
1.12735e-09
1.08347e-09
1.05197e-09
1.20751e-09
1.07951e-09
7.87585e-10
1.05777e-09
1.2435e-09
8.43666e-10
6.23719e-10
4.49393e-10
6.47391e-10
6.94861e-10
5.87315e-10
5.57807e-10
8.07853e-10
8.69922e-10
6.96253e-10
8.20842e-10
6.73784e-10
6.52916e-10
8.42497e-10
9.49372e-10
7.63567e-10
1.26998e-09
1.3117e-09
1.12736e-09
8.79249e-10
2.72089e-09
6.97335e-10
1.07659e-09
8.2338e-10
1.51046e-09
6.9706e-10
1.64361e-09
2.29691e-09
1.15018e-09
1.18995e-09