# Selection : patch(face14)
# Faces  :    104
# Area   :    1.506170e-04
# Time        	sum(phi)
0             	-1.712244e-04
32            	-1.712244e-04
