# vtk DataFile Version 2.0
DGS printing
ASCII
DATASET UNSTRUCTURED_GRID
POINTS  240  floats
21.28318 20.80881 22.31800 21.27981 20.75382 22.31800 21.22482 20.75719 22.31800 
21.22819 20.81218 22.31800 21.28318 20.80881 21.59701 21.27981 20.75382 21.59701 
21.22482 20.75719 21.59701 21.22819 20.81218 21.59701 21.29289 20.78061 22.31800 
21.25161 20.74411 22.31800 21.21511 20.78539 22.31800 21.25639 20.82189 22.31800 
21.29289 20.78061 21.59701 21.25161 20.74411 21.59701 21.21511 20.78539 21.59701 
21.25639 20.82189 21.59701 21.28318 20.80881 21.95751 21.27981 20.75382 21.95751 
21.22482 20.75719 21.95751 21.22819 20.81218 21.95751 21.25639 20.82189 21.95751 
21.25161 20.74411 21.95751 21.29289 20.78061 21.95751 21.21511 20.78539 21.95751 
21.28902 20.80006 21.59700 21.27106 20.74798 21.59700 21.21898 20.76594 21.59700 
21.23694 20.81802 21.59700 21.28902 20.80006 20.87601 21.27106 20.74798 20.87601 
21.21898 20.76594 20.87601 21.23694 20.81802 20.87601 21.29083 20.77030 21.59700 
21.24130 20.74617 21.59700 21.21717 20.79570 21.59700 21.26670 20.81983 21.59700 
21.29083 20.77030 20.87601 21.24130 20.74617 20.87601 21.21717 20.79570 20.87601 
21.26670 20.81983 20.87601 21.28902 20.80006 21.23651 21.27106 20.74798 21.23651 
21.21898 20.76594 21.23651 21.23694 20.81802 21.23651 21.26670 20.81983 21.23651 
21.24130 20.74617 21.23651 21.29083 20.77030 21.23651 21.21717 20.79570 21.23651 
21.28879 19.80053 20.81800 21.27153 19.74821 20.81800 21.21921 19.76547 20.81800 
21.23647 19.81779 20.81800 21.28879 19.80053 19.37603 21.27153 19.74821 19.37603 
21.21921 19.76547 19.37603 21.23647 19.81779 19.37603 21.29100 19.77079 20.81800 
21.24179 19.74600 20.81800 21.21700 19.79521 20.81800 21.26621 19.82000 20.81800 
21.29100 19.77079 19.37603 21.24179 19.74600 19.37603 21.21700 19.79521 19.37603 
21.26621 19.82000 19.37603 21.28879 19.80053 20.09702 21.27153 19.74821 20.09702 
21.21921 19.76547 20.09702 21.23647 19.81779 20.09702 21.26621 19.82000 20.09702 
21.24179 19.74600 20.09702 21.29100 19.77079 20.09702 21.21700 19.79521 20.09702 
21.26865 20.81910 19.37600 21.21790 20.79765 19.37600 21.23935 20.74690 19.37600 
21.29010 20.76835 19.37600 21.26865 20.81910 20.81797 21.21790 20.79765 20.81797 
21.23935 20.74690 20.81797 21.29010 20.76835 20.81797 21.23883 20.81888 19.37600 
21.21812 20.76783 19.37600 21.26917 20.74712 19.37600 21.28988 20.79817 19.37600 
21.23883 20.81888 20.81797 21.21812 20.76783 20.81797 21.26917 20.74712 20.81797 
21.28988 20.79817 20.81797 21.26865 20.81910 20.09698 21.21790 20.79765 20.09698 
21.23935 20.74690 20.09698 21.29010 20.76835 20.09698 21.28988 20.79817 20.09698 
21.21812 20.76783 20.09698 21.23883 20.81888 20.09698 21.26917 20.74712 20.09698 
21.28176 20.81034 17.93410 21.22666 20.81076 17.93410 21.22624 20.75566 17.93410 
21.28134 20.75524 17.93410 21.28176 20.81034 19.37607 21.22666 20.81076 19.37607 
21.22624 20.75566 19.37607 21.28134 20.75524 19.37607 21.25430 20.82196 17.93410 
21.21504 20.78330 17.93410 21.25370 20.74404 17.93410 21.29296 20.78270 17.93410 
21.25430 20.82196 19.37607 21.21504 20.78330 19.37607 21.25370 20.74404 19.37607 
21.29296 20.78270 19.37607 21.28176 20.81034 18.65508 21.22666 20.81076 18.65508 
21.22624 20.75566 18.65508 21.28134 20.75524 18.65508 21.29296 20.78270 18.65508 
21.21504 20.78330 18.65508 21.25430 20.82196 18.65508 21.25370 20.74404 18.65508 
21.29056 21.79647 19.37600 21.24053 21.81956 19.37600 21.21744 21.76953 19.37600 
21.26747 21.74644 19.37600 21.29056 21.79647 20.81797 21.24053 21.81956 20.81797 
21.21744 21.76953 20.81797 21.26747 21.74644 20.81797 21.27032 21.81838 19.37600 
21.21862 21.79932 19.37600 21.23768 21.74762 19.37600 21.28938 21.76668 19.37600 
21.27032 21.81838 20.81797 21.21862 21.79932 20.81797 21.23768 21.74762 20.81797 
21.28938 21.76668 20.81797 21.29056 21.79647 20.09698 21.24053 21.81956 20.09698 
21.21744 21.76953 20.09698 21.26747 21.74644 20.09698 21.28938 21.76668 20.09698 
21.21862 21.79932 20.09698 21.27032 21.81838 20.09698 21.23768 21.74762 20.09698 
21.27980 22.81220 19.37600 21.22480 22.80880 19.37600 21.22820 22.75380 19.37600 
21.28320 22.75720 19.37600 21.27980 22.81220 20.81797 21.22480 22.80880 20.81797 
21.22820 22.75380 20.81797 21.28320 22.75720 20.81797 21.25160 22.82189 19.37600 
21.21511 22.78060 19.37600 21.25640 22.74411 19.37600 21.29289 22.78540 19.37600 
21.25160 22.82189 20.81797 21.21511 22.78060 20.81797 21.25640 22.74411 20.81797 
21.29289 22.78540 20.81797 21.27980 22.81220 20.09698 21.22480 22.80880 20.09698 
21.22820 22.75380 20.09698 21.28320 22.75720 20.09698 21.29289 22.78540 20.09698 
21.21511 22.78060 20.09698 21.25160 22.82189 20.09698 21.25640 22.74411 20.09698 
21.28781 23.80235 19.37600 21.23465 23.81681 19.37600 21.22019 23.76365 19.37600 
21.27335 23.74919 19.37600 21.28781 23.80235 22.31797 21.23465 23.81681 22.31797 
21.22019 23.76365 22.31797 21.27335 23.74919 22.31797 21.26423 23.82059 19.37600 
21.21641 23.79323 19.37600 21.24377 23.74541 19.37600 21.29159 23.77277 19.37600 
21.26423 23.82059 22.31797 21.21641 23.79323 22.31797 21.24377 23.74541 22.31797 
21.29159 23.77277 22.31797 21.28781 23.80235 20.84698 21.23465 23.81681 20.84698 
21.22019 23.76365 20.84698 21.27335 23.74919 20.84698 21.29159 23.77277 20.84698 
21.21641 23.79323 20.84698 21.26423 23.82059 20.84698 21.24377 23.74541 20.84698 
21.27247 20.81730 16.37600 21.21970 20.80147 16.37600 21.23553 20.74870 16.37600 
21.28830 20.76453 16.37600 21.27247 20.81730 17.81797 21.21970 20.80147 17.81797 
21.23553 20.74870 17.81797 21.28830 20.76453 17.81797 21.24281 20.82032 16.37600 
21.21668 20.77181 16.37600 21.26519 20.74568 16.37600 21.29132 20.79419 16.37600 
21.24281 20.82032 17.81797 21.21668 20.77181 17.81797 21.26519 20.74568 17.81797 
21.29132 20.79419 17.81797 21.27247 20.81730 17.09698 21.21970 20.80147 17.09698 
21.23553 20.74870 17.09698 21.28830 20.76453 17.09698 21.29132 20.79419 17.09698 
21.21668 20.77181 17.09698 21.24281 20.82032 17.09698 21.26519 20.74568 17.09698 
21.26428 23.32058 17.87600 21.21642 23.29328 17.87600 21.24372 23.24542 17.87600 
21.29158 23.27272 17.87600 21.26428 23.32058 19.31797 21.21642 23.29328 19.31797 
21.24372 23.24542 19.31797 21.29158 23.27272 19.31797 21.23470 23.31684 17.87600 
21.22016 23.26370 17.87600 21.27330 23.24916 17.87600 21.28784 23.30230 17.87600 
21.23470 23.31684 19.31797 21.22016 23.26370 19.31797 21.27330 23.24916 19.31797 
21.28784 23.30230 19.31797 21.26428 23.32058 18.59698 21.21642 23.29328 18.59698 
21.24372 23.24542 18.59698 21.29158 23.27272 18.59698 21.28784 23.30230 18.59698 
21.22016 23.26370 18.59698 21.23470 23.31684 18.59698 21.27330 23.24916 18.59698 
CELLS  10   250
24 0 1 2 3 4 5 6 7 8 9 10 11 12 13 14 15 16 17 18 19 20 21 22 23
24 24 25 26 27 28 29 30 31 32 33 34 35 36 37 38 39 40 41 42 43 44 45 46 47
24 48 49 50 51 52 53 54 55 56 57 58 59 60 61 62 63 64 65 66 67 68 69 70 71
24 72 73 74 75 76 77 78 79 80 81 82 83 84 85 86 87 88 89 90 91 92 93 94 95
24 96 97 98 99 100 101 102 103 104 105 106 107 108 109 110 111 112 113 114 115 116 117 118 119
24 120 121 122 123 124 125 126 127 128 129 130 131 132 133 134 135 136 137 138 139 140 141 142 143
24 144 145 146 147 148 149 150 151 152 153 154 155 156 157 158 159 160 161 162 163 164 165 166 167
24 168 169 170 171 172 173 174 175 176 177 178 179 180 181 182 183 184 185 186 187 188 189 190 191
24 192 193 194 195 196 197 198 199 200 201 202 203 204 205 206 207 208 209 210 211 212 213 214 215
24 216 217 218 219 220 221 222 223 224 225 226 227 228 229 230 231 232 233 234 235 236 237 238 239
CELL_TYPES  10 
33
33
33
33
33
33
33
33
33
33
CELL_DATA  10 
SCALARS average_vol_activity_bq_m3 double 1 
LOOKUP_TABLE default
12.30776
94.06481
155.88479
169.09361
161.32019
127.85446
148.13887
561.42083
148.19203
446.05870
SCALARS total_activity_bq double 1 
LOOKUP_TABLE default
0.04232
0.32340
1.07188
1.16271
1.10926
0.87914
1.01862
7.87617
1.01899
3.06716
SCALARS mc_error double 1 
LOOKUP_TABLE default
0.00000
0.00000
0.00000
0.00000
0.00000
0.00000
0.00000
0.00000
0.00000
0.00000
