# Region type : patch face2
# Faces  :    136
# Area   :    9.249909e-05
# Time        	sum(phi)
0             	1.750001e-04
29            	1.750001e-04
