/*--------------------------------*- C++ -*----------------------------------*\
  =========                 |
  \\      /  F ield         | OpenFOAM: The Open Source CFD Toolbox
   \\    /   O peration     | Website:  https://openfoam.org
    \\  /    A nd           | Version:  12
     \\/     M anipulation  |
\*---------------------------------------------------------------------------*/
FoamFile
{
    format      ascii;
    class       volScalarField;
    location    "0";
    object      Ccy;
}
// * * * * * * * * * * * * * * * * * * * * * * * * * * * * * * * * * * * * * //

dimensions      [0 1 0 0 0 0 0];

internalField   nonuniform List<scalar> 
143879
(
0.0616617
0.0618333
0.0613718
0.0616693
0.0618437
0.0620046
0.0618672
0.0612985
0.0613838
0.0613565
0.0616806
0.0618594
0.0620162
0.0618858
0.0620056
0.0620088
0.0616567
0.0620098
0.0615067
0.0613123
0.0611666
0.0614019
0.0613783
0.0610503
0.061637
0.0618984
0.0620336
0.0619135
0.0620195
0.0620308
0.0616817
0.0620343
0.0620037
0.0620112
0.0620133
0.0618083
0.0620135
0.0617117
0.0615204
0.0615454
0.061333
0.0611907
0.0609835
0.0612465
0.061426
0.061411
0.06108
0.0611232
0.0608538
0.0616629
0.0617428
0.0619195
0.0620415
0.0621845
0.0620403
0.0620637
0.0619641
0.0617193
0.0620711
0.0620131
0.0620391
0.0620465
0.0618418
0.0620473
0.0620058
0.0620146
0.0620147
0.0620184
0.0615645
0.0620179
0.0618897
0.0617198
0.0615408
0.0615687
0.0614321
0.0617217
0.0612268
0.061014
0.0612779
0.0608879
0.0611451
0.061345
0.061417
0.0611245
0.0611639
0.0608858
0.0607942
0.0606917
0.0618069
0.0618376
0.061886
0.0616787
0.0618439
0.0620627
0.0622165
0.0622816
0.0623403
0.0620271
0.0622026
0.062081
0.0621572
0.0620963
0.0618839
0.0621549
0.0617388
0.061892
0.0621648
0.0620979
0.0620203
0.0620512
0.0620514
0.0620643
0.0616061
0.0620624
0.0620051
0.0620117
0.0620213
0.0620225
0.0620201
0.0620229
0.0617794
0.0620223
0.0621374
0.0619023
0.061865
0.0617318
0.0616037
0.0614628
0.0617475
0.0615288
0.0617866
0.0610598
0.0613251
0.0609319
0.0611887
0.0607325
0.060968
0.0612606
0.0613345
0.0614919
0.0612471
0.0615593
0.0611058
0.0612249
0.0609337
0.0608436
0.0607365
0.0609456
0.0605589
0.0620093
0.0617659
0.0620588
0.0618218
0.0617947
0.0619871
0.0622377
0.0623605
0.0622853
0.0624375
0.0624784
0.062042
0.0621733
0.0623735
0.0623406
0.062247
0.0621061
0.0621065
0.0622847
0.0622628
0.0621332
0.0619732
0.0622971
0.0618282
0.0619361
0.0616685
0.0622923
0.0622343
0.0621294
0.0620178
0.0620409
0.0620745
0.0620788
0.0620702
0.0620803
0.0618327
0.062078
0.0621707
0.062009
0.0620149
0.0620243
0.0620256
0.0620257
0.062026
0.0620272
0.0614864
0.0620277
0.0622844
0.0621505
0.0622019
0.0619212
0.0618856
0.0620517
0.0615089
0.0617862
0.061569
0.0618201
0.0614602
0.0617056
0.0619782
0.0611647
0.0609978
0.0614105
0.061254
0.0607837
0.0610179
0.0613128
0.060646
0.0608932
0.0611985
0.0614814
0.0614802
0.0613711
0.0615659
0.061619
0.0612299
0.0613591
0.0609178
0.0608037
0.0610048
0.0606102
0.0605837
0.060456
0.0620309
0.0622326
0.0618789
0.061905
0.0622821
0.0620539
0.0618865
0.0618013
0.0620858
0.0623817
0.0625161
0.0624276
0.0626572
0.062421
0.0627119
0.0622113
0.0620369
0.0620847
0.062348
0.0625075
0.0624947
0.0624921
0.0622723
0.0622725
0.0621544
0.0621633
0.0623585
0.062437
0.0623034
0.0621455
0.0621663
0.0618612
0.0621244
0.0622824
0.0624149
0.0617161
0.0621423
0.061824
0.061694
0.0619127
0.0623732
0.0623314
0.0622474
0.0621615
0.0621802
0.0620315
0.0620523
0.0620852
0.0620897
0.0620897
0.0620909
0.0620952
0.0615484
0.0620968
0.0622962
0.0620131
0.0620112
0.062021
0.0620304
0.062032
0.062031
0.0620292
0.0620312
0.061731
0.0620298
0.0622952
0.0624946
0.0621701
0.0622221
0.062379
0.0619166
0.0620753
0.0621021
0.0616956
0.0616293
0.0618702
0.0615099
0.0617462
0.0620127
0.061648
0.0618496
0.0620255
0.0612887
0.0611931
0.0608604
0.0610926
0.0613651
0.061662
0.0613911
0.060708
0.0609563
0.0612648
0.0605017
0.0607283
0.0610091
0.0614153
0.0614881
0.0617317
0.0615372
0.0616256
0.0610479
0.0612339
0.0609746
0.0610937
0.0606871
0.0606487
0.0605186
0.0607626
0.0603267
0.062026
0.0621962
0.0623725
0.0620181
0.0624376
0.0622772
0.0621098
0.0618675
0.0620337
0.0623055
0.062486
0.0624057
0.0629341
0.0626436
0.0627936
0.0626407
0.0629341
0.0627079
0.0623109
0.0623628
0.0621492
0.0621944
0.0620652
0.0622309
0.0621083
0.0624994
0.0624701
0.0623829
0.0627233
0.0627144
0.0624932
0.0623981
0.0623884
0.0621764
0.0621858
0.0623003
0.0621859
0.0625327
0.0626561
0.0624403
0.062315
0.0623365
0.0621882
0.0621973
0.0620124
0.0624313
0.0624129
0.0624879
0.0626271
0.0623166
0.0620303
0.0617283
0.0620259
0.0616414
0.0624704
0.0624666
0.0623825
0.0623984
0.0623393
0.0622006
0.0623116
0.0620459
0.0620391
0.0620734
0.0621065
0.0621121
0.0621085
0.0621023
0.062109
0.0618007
0.0621043
0.0625816
0.06215
0.0620163
0.0620152
0.062011
0.0620233
0.0620315
0.0620339
0.0620357
0.062035
0.0620331
0.0620338
0.0613745
0.0620322
0.0623113
0.0625114
0.0626753
0.0625347
0.0622524
0.0624018
0.0624603
0.0621107
0.0621317
0.0623311
0.0617919
0.0615843
0.0618071
0.0619693
0.0620645
0.0617062
0.0618957
0.0620672
0.0616664
0.0618586
0.0622313
0.0610936
0.0613513
0.0608008
0.0612489
0.061051
0.0615559
0.0617905
0.0615623
0.0613642
0.0605688
0.0607965
0.0610803
0.061488
0.0604167
0.0606459
0.0609499
0.0614073
0.0618731
0.0617409
0.0610624
0.0614401
0.0608031
0.0611122
0.0607461
0.0606123
0.0608329
0.0603931
0.0603963
0.0602506
0.0621747
0.0622771
0.0623145
0.0626061
0.0622453
0.0626217
0.0623086
0.0620577
0.0623295
0.062014
0.0621803
0.0623384
0.0626983
0.0625118
0.0633565
0.0629341
0.0629341
0.0629341
0.062858
0.0629378
0.06295
0.0631686
0.0628753
0.0627152
0.062502
0.0624319
0.0624819
0.0621795
0.0623347
0.0620952
0.0620811
0.0623499
0.0622471
0.062152
0.0627488
0.0626038
0.0628729
0.0628837
0.0627388
0.0628873
0.0625935
0.0626075
0.0625105
0.0625889
0.062335
0.0622207
0.0624234
0.0622322
0.0625002
0.0625097
0.0624309
0.0622247
0.0625361
0.0626595
0.0629248
0.0624842
0.062532
0.0624934
0.062384
0.0622119
0.0623932
0.0622258
0.0626397
0.0626252
0.0627
0.0623602
0.0621031
0.0619312
0.0618733
0.0623432
0.061897
0.0616807
0.0619054
0.0626648
0.0625135
0.062669
0.0625426
0.0625506
0.062378
0.0624674
0.062216
0.0625986
0.0621724
0.0620572
0.0620531
0.0620385
0.0620817
0.0621103
0.0621186
0.0621249
0.0621224
0.0621158
0.0621182
0.0614469
0.0621127
0.0627278
0.0623251
0.0620205
0.0620183
0.0620154
0.0620277
0.0620344
0.0620374
0.0620401
0.0620374
0.0620353
0.0620362
0.0616732
0.0620349
0.0620318
0.0623547
0.0625366
0.0626924
0.0625562
0.062919
0.0627204
0.0624361
0.0624888
0.0626763
0.0621762
0.0623631
0.0624113
0.0618567
0.0619265
0.0617126
0.0617935
0.0619648
0.0621965
0.0622254
0.0621298
0.0617337
0.0619132
0.062274
0.0620092
0.0620904
0.0622881
0.0611642
0.061555
0.0609504
0.0606693
0.0608988
0.0614526
0.061208
0.061187
0.0616871
0.0618889
0.0619218
0.0616225
0.0617448
0.0614933
0.0615969
0.0604946
0.0607288
0.0610319
0.0614895
0.060296
0.060481
0.0607518
0.0611335
0.0616792
0.0611652
0.0614373
0.0613814
0.0607538
0.0613686
0.0609731
0.0608285
0.0609384
0.0604926
0.0604699
0.0603252
0.0606208
0.0600995
0.0601495
0.062489
0.062548
0.0628076
0.062547
0.0623056
0.0622774
0.0624355
0.0620614
0.0623926
0.0625507
0.0628544
0.0623569
0.0623493
0.0634668
0.0634903
0.0635034
0.063434
0.0629341
0.0631862
0.0629341
0.0633019
0.0629793
0.0629341
0.0633565
0.0629341
0.0629341
0.0630125
0.0630942
0.0633935
0.06327
0.06304
0.0629204
0.0628011
0.0627618
0.0623577
0.0625215
0.0627106
0.0627044
0.0622823
0.062624
0.062206
0.0622347
0.0621184
0.0621989
0.0621101
0.0620798
0.0625163
0.0623418
0.0623911
0.0623109
0.0621693
0.062878
0.0626182
0.0630333
0.0629434
0.0628719
0.0629117
0.0626658
0.0628028
0.0626296
0.0626405
0.0627207
0.0624649
0.0623885
0.0622285
0.0622457
0.0624705
0.0622588
0.0627096
0.0625968
0.0624294
0.0622536
0.062809
0.0629202
0.0631649
0.0630579
0.0626207
0.0626889
0.0624071
0.0622398
0.0624212
0.0622448
0.0628673
0.0626776
0.062705
0.062871
0.0627798
0.0624608
0.0625126
0.0620762
0.0619061
0.0617444
0.0623488
0.0624852
0.0620979
0.061717
0.0618775
0.0615555
0.0627079
0.0625744
0.0628508
0.0627212
0.0627291
0.0626286
0.062553
0.0625152
0.0627332
0.0624415
0.0622335
0.062748
0.0623507
0.062072
0.0620643
0.0620539
0.0620971
0.0621204
0.0621308
0.0621405
0.062131
0.0621234
0.0621265
0.061749
0.0621219
0.0621111
0.062613
0.0630368
0.0621915
0.062022
0.0620187
0.0620165
0.0620277
0.0620368
0.0620325
0.062039
0.0620409
0.062043
0.0620411
0.0620371
0.0612879
0.0620368
0.0620328
0.0625461
0.062718
0.0625884
0.0629417
0.0627459
0.0631343
0.0629258
0.0625733
0.0625316
0.0627062
0.0627926
0.0624111
0.062449
0.0626558
0.0621461
0.0621537
0.0619263
0.0619612
0.0618345
0.0619951
0.0621592
0.0623858
0.0622809
0.0623381
0.0620775
0.0621471
0.0623374
0.0620313
0.0622262
0.0625612
0.0613247
0.0615368
0.0608554
0.061111
0.0606114
0.0610967
0.060853
0.0614343
0.0614514
0.0613633
0.0611548
0.0617858
0.0621783
0.0621826
0.0618558
0.0617147
0.0619225
0.0617266
0.0617895
0.0616127
0.0603776
0.0605684
0.0608404
0.0612202
0.0617607
0.0602284
0.0603789
0.0606824
0.0611146
0.0616657
0.0609071
0.0613786
0.0616446
0.0607862
0.0612296
0.0609281
0.0606417
0.0610036
0.0605802
0.060437
0.0606971
0.0601764
0.060228
0.0603196
0.0600499
0.0601105
0.0626623
0.0628436
0.0627035
0.062544
0.0624657
0.0626238
0.0619931
0.0622636
0.0624286
0.0630089
0.062384
0.0637274
0.0636465
0.0637508
0.0635917
0.0636594
0.0636048
0.0633418
0.0635901
0.0636137
0.0631082
0.0631847
0.063103
0.0633147
0.063269
0.0626244
0.0629979
0.0628344
0.0632695
0.0635183
0.0635362
0.0634579
0.0631862
0.0629979
0.0626186
0.06333
0.0628344
0.0631707
0.0634949
0.0634781
0.0632754
0.0632783
0.0630851
0.0629698
0.0628195
0.0629647
0.0623837
0.0624605
0.0624902
0.062744
0.0627273
0.062715
0.0626625
0.0627783
0.0621978
0.062389
0.062417
0.0623171
0.0621491
0.0623963
0.0622337
0.0621332
0.0621117
0.0625081
0.0625343
0.0625496
0.0623283
0.0622012
0.0629485
0.0631584
0.0628168
0.0632316
0.0631121
0.0630448
0.0629138
0.0628752
0.0630917
0.0628984
0.0628859
0.0625686
0.0629662
0.0625702
0.0624938
0.0623953
0.0622494
0.0624839
0.0622709
0.0626848
0.0625105
0.0622911
0.0628701
0.0628361
0.0627239
0.0624577
0.0625565
0.0622714
0.0630376
0.0634556
0.0633278
0.0628748
0.0629338
0.0624354
0.0622555
0.0624404
0.0622621
0.0629051
0.0627411
0.0629507
0.0626132
0.0624578
0.0620512
0.0618928
0.0625001
0.0627321
0.0623688
0.0625896
0.0619419
0.062049
0.0613806
0.0621023
0.0616166
0.0618628
0.0629025
0.062852
0.0630209
0.0629081
0.0629161
0.0628827
0.06278
0.0628292
0.0627994
0.0629869
0.0625448
0.062713
0.062428
0.0622526
0.0622303
0.0626353
0.063058
0.0622247
0.062077
0.0620655
0.0620577
0.0620972
0.062129
0.0621139
0.0621364
0.0621431
0.0621506
0.0621438
0.0621298
0.0613645
0.0621285
0.0621146
0.0628023
0.0631709
0.0623591
0.0620247
0.0620209
0.0620189
0.0620296
0.0620372
0.0620334
0.0620391
0.062047
0.0620485
0.0620426
0.0620399
0.0616417
0.0620399
0.0620351
0.0620311
0.0628198
0.0629759
0.0626838
0.062784
0.0631579
0.0629522
0.0633799
0.0631273
0.0626472
0.0627509
0.0628276
0.0630391
0.0625598
0.0625055
0.0626952
0.0627492
0.0621808
0.0620179
0.0622156
0.0620527
0.0619621
0.06218
0.0621864
0.0622321
0.0625138
0.0625151
0.0624114
0.0621044
0.0622877
0.0626112
0.0623859
0.0625434
0.0615889
0.0613941
0.0618009
0.0608194
0.061205
0.0611804
0.0604998
0.0606995
0.0612242
0.0610735
0.0609731
0.0616777
0.0615013
0.0615183
0.0616068
0.0614749
0.0613502
0.0621307
0.062177
0.061948
0.0618795
0.0620047
0.0618813
0.0618828
0.0603211
0.0604803
0.0607854
0.0612103
0.0617542
0.060144
0.0602482
0.0603744
0.060499
0.0608603
0.0613748
0.0619624
0.0611231
0.0616418
0.0610427
0.0612237
0.0607037
0.0606053
0.0607511
0.0612992
0.0605737
0.0608116
0.0602914
0.0603455
0.060397
0.060134
0.0601992
0.0600431
0.0603616
0.0600495
0.0600611
0.0629519
0.0627193
0.0625406
0.0621953
0.0626227
0.0625002
0.0622723
0.0640394
0.0637788
0.0639586
0.0639407
0.0638023
0.0637816
0.0635413
0.0639715
0.0636337
0.0637947
0.0635214
0.0634978
0.0637698
0.0631079
0.0634187
0.0631843
0.0630397
0.0633428
0.0635545
0.0632819
0.063407
0.0624968
0.0625128
0.0628332
0.0632553
0.0630918
0.0625507
0.0636196
0.0637302
0.0634439
0.0637098
0.0631978
0.0631656
0.0628405
0.0633644
0.0629343
0.0625735
0.0631631
0.0633296
0.0636267
0.0636363
0.0632836
0.0634689
0.0634162
0.0632819
0.0629274
0.0630406
0.0631284
0.0625752
0.0625536
0.0627127
0.0627068
0.0627556
0.0627484
0.0626686
0.06309
0.0622955
0.0624144
0.0622746
0.0625853
0.0623468
0.062401
0.0621595
0.062523
0.0624007
0.0622562
0.0621356
0.0622196
0.0621196
0.0628031
0.0624664
0.0628191
0.0624576
0.0623689
0.0622013
0.0631086
0.063377
0.0629769
0.0634877
0.0631901
0.0630848
0.063164
0.0630247
0.0628186
0.0627818
0.063183
0.0630069
0.0626605
0.0625621
0.0624751
0.0622672
0.062236
0.0626964
0.062545
0.0622826
0.0626984
0.0629002
0.0630198
0.0626971
0.0626318
0.0625453
0.0622963
0.062312
0.0632288
0.0628663
0.0630916
0.0629884
0.0627271
0.0628209
0.0626089
0.062298
0.063325
0.0636751
0.0634472
0.0635473
0.0630882
0.062568
0.0624573
0.0622688
0.0625879
0.0624787
0.0630463
0.0629884
0.0629698
0.0630303
0.0628614
0.0626336
0.0625657
0.0623311
0.0625989
0.0629874
0.062779
0.0623815
0.0624732
0.0628499
0.0618661
0.0619947
0.0623062
0.0613113
0.0620301
0.0617656
0.0619383
0.0614793
0.0630416
0.0631635
0.0630307
0.0630562
0.0629816
0.0629537
0.063116
0.063113
0.0628163
0.0626822
0.0624248
0.0624468
0.0622663
0.0622374
0.0628219
0.0631918
0.0623815
0.0620866
0.0620733
0.0620665
0.0621037
0.0621302
0.0621171
0.0621368
0.0621646
0.0621699
0.0621489
0.0621394
0.0617176
0.0621396
0.0621229
0.0621088
0.0630523
0.0626854
0.0635022
0.0621914
0.0620234
0.0620203
0.0620176
0.0620279
0.0620356
0.0620317
0.0620394
0.0620516
0.0620456
0.0620521
0.0620461
0.0613073
0.06204
0.0620341
0.0620306
0.0630181
0.0631934
0.062992
0.0628347
0.0634062
0.0631583
0.0633656
0.0636164
0.0628146
0.0628801
0.0630744
0.0631768
0.0626358
0.0627543
0.0627942
0.0630234
0.0623851
0.0622195
0.0624089
0.062214
0.06238
0.0623679
0.0625749
0.0626861
0.0624561
0.0626004
0.0628097
0.0623285
0.0628396
0.0616582
0.0615199
0.0618797
0.0608926
0.0610085
0.0612755
0.0613079
0.0607029
0.0604599
0.0609271
0.0606322
0.0611464
0.0611687
0.0609397
0.0618589
0.0617447
0.0616958
0.0617389
0.061497
0.0616908
0.0615574
0.0613538
0.0621772
0.0623003
0.0620174
0.0620694
0.0623078
0.062084
0.0618792
0.0618868
0.0602399
0.0603513
0.0604876
0.0606136
0.0609656
0.0614728
0.0620495
0.0601105
0.0601677
0.0602216
0.0604333
0.0608078
0.061483
0.0618706
0.0611447
0.0615754
0.0610643
0.0611544
0.0605664
0.0608698
0.0607714
0.0608832
0.0611959
0.0607058
0.0608996
0.060513
0.0602599
0.0603321
0.0601248
0.0604359
0.0601393
0.0601539
0.0600762
0.0606869
0.0601151
0.0600597
0.060052
0.0630848
0.063034
0.0628867
0.0623882
0.0622808
0.0627307
0.062826
0.064119
0.0641889
0.0640386
0.0640422
0.0640043
0.0640493
0.0641093
0.0638902
0.0636973
0.0641732
0.0640054
0.0634853
0.0637919
0.0639731
0.0636775
0.0631975
0.0634184
0.0630677
0.0633772
0.0637204
0.0634145
0.0634616
0.0625798
0.0630058
0.0627538
0.0635852
0.0632718
0.06313
0.0631137
0.0625592
0.0635438
0.0638794
0.0638024
0.0636379
0.0639696
0.0634698
0.0634375
0.0630081
0.0631465
0.0627796
0.0633221
0.0639384
0.0635953
0.0636835
0.0634819
0.0634548
0.0635616
0.0635722
0.0633087
0.0630643
0.0631651
0.0629723
0.0631613
0.0628564
0.0628875
0.0628816
0.0627215
0.0628654
0.0626688
0.0628512
0.0631869
0.0632232
0.0624233
0.0625422
0.0623344
0.0624151
0.0628665
0.062568
0.0623576
0.0624235
0.0621792
0.0625613
0.0625303
0.0623727
0.0622757
0.0621519
0.0622274
0.0623336
0.0621376
0.0625957
0.0629873
0.0623692
0.0622147
0.0632567
0.0633033
0.0635654
0.0636142
0.0633534
0.0631644
0.0632513
0.0628855
0.0628471
0.0627685
0.0628877
0.0634061
0.0629935
0.0632959
0.0626965
0.062462
0.0626794
0.0625413
0.0622696
0.0622425
0.063018
0.0627549
0.0625741
0.0622834
0.0628197
0.062885
0.0632766
0.0632124
0.0633813
0.062983
0.0629011
0.0628312
0.0628886
0.0625327
0.062341
0.0626802
0.0623519
0.0636021
0.0631554
0.0632036
0.063344
0.0629632
0.0628332
0.0627379
0.0629
0.0626662
0.0623084
0.0635141
0.0633496
0.0639868
0.0636569
0.0638205
0.0636748
0.0633192
0.0628212
0.062815
0.0627104
0.0626805
0.0625649
0.0622888
0.0628299
0.062697
0.0631296
0.0629267
0.0630026
0.0628762
0.0624299
0.0628521
0.0631092
0.0631389
0.0630505
0.0626368
0.0627335
0.0629717
0.0619467
0.0615719
0.0619679
0.0617721
0.0622519
0.0624465
0.0614334
0.061764
0.0624635
0.0615563
0.0618314
0.0633693
0.0631354
0.0633297
0.0632086
0.0630881
0.0632007
0.0631021
0.0633678
0.0633859
0.0629047
0.0629317
0.062948
0.0626775
0.0626718
0.0627028
0.0626923
0.0625845
0.0622892
0.0622546
0.0624133
0.0622254
0.0630697
0.0626979
0.063523
0.0622187
0.0620822
0.0620712
0.062062
0.0620977
0.0621246
0.0621112
0.0621381
0.0621808
0.0621596
0.0621825
0.0621613
0.0613795
0.0621399
0.0621192
0.0621068
0.0632475
0.0629302
0.0635425
0.0623381
0.0620248
0.0620201
0.0620179
0.0620292
0.062036
0.0620325
0.062038
0.0620583
0.0620469
0.0620501
0.0620599
0.0620436
0.0616932
0.0620358
0.0620311
0.0620283
0.0632432
0.0634456
0.0632048
0.0633957
0.0636402
0.0635496
0.0638672
0.0629147
0.0631273
0.0632169
0.0634439
0.0628232
0.0628617
0.0630689
0.0631305
0.0624637
0.0624033
0.0624389
0.0626531
0.0625612
0.0626859
0.0628713
0.0624058
0.0628959
0.0631435
0.0626647
0.061737
0.0617046
0.0621574
0.0610817
0.061568
0.0616004
0.0606804
0.0603836
0.0605057
0.0608871
0.0606573
0.0613024
0.0612674
0.0611454
0.0607852
0.0611234
0.0621366
0.0619165
0.0615956
0.0620126
0.0619276
0.0617942
0.0616711
0.0616197
0.0623395
0.0624498
0.062238
0.0623609
0.0624917
0.0624654
0.0620915
0.0623912
0.0621159
0.0621802
0.0602182
0.0602804
0.0603473
0.0605639
0.060928
0.0615879
0.0619682
0.0600681
0.0601438
0.060185
0.0605657
0.0602733
0.0609923
0.0613171
0.0621685
0.0613337
0.0611663
0.0607324
0.0608536
0.0604908
0.0612201
0.0606846
0.0605244
0.0602473
0.0605474
0.0602739
0.0605823
0.0602928
0.0601594
0.060758
0.0601911
0.0601514
0.0601516
0.060093
0.0605343
0.0602103
0.0600694
0.0600501
0.063167
0.0624738
0.0628623
0.0627828
0.0642974
0.0641803
0.0645018
0.0642354
0.064244
0.0641144
0.064206
0.0641866
0.0642042
0.0642747
0.0640146
0.0640451
0.0638563
0.0637226
0.0643059
0.0643384
0.0640194
0.0641837
0.0634778
0.0636375
0.0640952
0.0637458
0.0634214
0.0630583
0.0635658
0.0634056
0.0631906
0.0631654
0.0635001
0.0636133
0.0636315
0.0632849
0.0633547
0.0636213
0.0625827
0.0628669
0.0628262
0.0626522
0.0636778
0.0636017
0.0633243
0.0631519
0.0628811
0.0633259
0.0637149
0.0640578
0.0637837
0.0641479
0.0636157
0.0635517
0.0630843
0.0630965
0.0629073
0.0639952
0.063907
0.0636054
0.0637902
0.0635382
0.0634977
0.0632989
0.0630515
0.0631417
0.0634378
0.0628385
0.0628083
0.0630688
0.0627225
0.0628254
0.0630957
0.0627165
0.0632881
0.0633441
0.0633186
0.0635541
0.0624448
0.0625958
0.0624425
0.0624639
0.0622593
0.0630347
0.0627389
0.0625154
0.0625813
0.0623776
0.0621701
0.0624941
0.062766
0.0626976
0.0623898
0.06254
0.0622929
0.0621474
0.0622467
0.0623481
0.0621282
0.062634
0.0631359
0.06253
0.0624962
0.0624321
0.0622024
0.0634227
0.0635264
0.063794
0.0639259
0.063504
0.0633984
0.0635583
0.0630244
0.0629957
0.0628744
0.0632629
0.0636305
0.0632104
0.0634423
0.0625986
0.0629338
0.0626268
0.0628963
0.0627583
0.0625688
0.0622581
0.0624775
0.0622302
0.0633917
0.0630712
0.0629703
0.062724
0.0627897
0.0625822
0.0622861
0.0631088
0.063064
0.0632465
0.0636198
0.0633956
0.0635738
0.0632284
0.0635626
0.06334
0.0630658
0.0631708
0.0631745
0.0628706
0.0625756
0.0623744
0.0623306
0.0627189
0.062378
0.0637604
0.0632426
0.063456
0.0629755
0.0630752
0.0629562
0.0631086
0.0628747
0.0626036
0.0623341
0.0636913
0.0635806
0.0641407
0.0641786
0.0639686
0.0638382
0.0636807
0.0639943
0.0633349
0.0630682
0.0629159
0.0629337
0.0625844
0.0629308
0.062526
0.0629787
0.0629646
0.063361
0.0634352
0.0627056
0.0631566
0.0616525
0.0621979
0.061514
0.062225
0.0617452
0.0618536
0.0623447
0.062529
0.0627072
0.0614037
0.0614278
0.0620516
0.0624825
0.0616321
0.0618042
0.0614878
0.0635156
0.0635277
0.0634084
0.0635846
0.0633454
0.0634338
0.0634263
0.0634817
0.0633539
0.0634972
0.0635117
0.0635313
0.0630509
0.0631844
0.0631935
0.0629244
0.0626589
0.0629483
0.0626755
0.0627187
0.0624982
0.0622898
0.06243
0.062247
0.0626113
0.0624994
0.0622213
0.0632611
0.0629346
0.0635585
0.0623602
0.0620868
0.0620707
0.062063
0.0621022
0.0621262
0.0621138
0.062133
0.0622041
0.0621644
0.0621752
0.0622097
0.0621525
0.0617615
0.0621253
0.0621089
0.0620991
0.0632441
0.0629272
0.0637881
0.062168
0.0626559
0.0620228
0.0620191
0.0620204
0.0620274
0.0620346
0.0620313
0.0620386
0.0620629
0.0620599
0.0620415
0.0620537
0.0620536
0.0620622
0.0620454
0.0614296
0.0620331
0.0620303
0.0620276
0.0634517
0.0635411
0.0634408
0.063676
0.0632447
0.0635807
0.0638903
0.0638126
0.0641206
0.063277
0.0634809
0.0636234
0.0631371
0.0631801
0.0634577
0.0626476
0.0626966
0.062975
0.0629636
0.0625218
0.062903
0.0629803
0.0632017
0.0627389
0.0635206
0.0630573
0.0625948
0.0623195
0.0609071
0.0616918
0.0606254
0.0603795
0.0607938
0.0604492
0.0610841
0.0609408
0.0605357
0.0615553
0.0613281
0.0615118
0.0610371
0.0607595
0.0615061
0.0611082
0.0621931
0.0619017
0.0618103
0.0618022
0.0622494
0.0618735
0.0617451
0.0623482
0.0626452
0.0628305
0.0627497
0.0621257
0.0623511
0.0627126
0.0623744
0.0621145
0.0601756
0.0602675
0.060326
0.0606996
0.0604176
0.0611206
0.0614372
0.0622647
0.0600598
0.060079
0.0601045
0.0604555
0.0602662
0.0608456
0.0616007
0.0620619
0.0607034
0.0605052
0.061188
0.0608786
0.060553
0.060284
0.0605639
0.0608645
0.060305
0.0602888
0.0605213
0.0603008
0.0601805
0.0605996
0.0602857
0.0601624
0.0601482
0.0601776
0.0608918
0.0603018
0.0602555
0.0601152
0.0600671
0.0629774
0.0645306
0.0645403
0.0647116
0.0644968
0.0643758
0.0645324
0.0640778
0.0644722
0.0640398
0.0643415
0.0640821
0.06418
0.0645641
0.064169
0.0640892
0.0639566
0.0638968
0.0636158
0.0646271
0.0641845
0.0642665
0.0651186
0.0641824
0.0634015
0.0631345
0.0636705
0.0635299
0.0632883
0.0635404
0.0637272
0.0635244
0.0637645
0.0633626
0.0635144
0.0629478
0.0629765
0.0628151
0.0638221
0.0638309
0.0636446
0.0636172
0.0631391
0.0633712
0.063497
0.0639691
0.0636667
0.0643574
0.064103
0.0645169
0.0637118
0.0636844
0.063356
0.0630967
0.0632277
0.0640092
0.0638308
0.0637668
0.0634612
0.0632499
0.0630419
0.0632989
0.0635071
0.0627142
0.0629112
0.063226
0.0627926
0.0630709
0.0632814
0.0627494
0.0629412
0.0634966
0.0635744
0.0632005
0.0635697
0.0635825
0.0625862
0.0625761
0.0623381
0.0626267
0.0623596
0.0622591
0.062393
0.0629244
0.0632231
0.0623686
0.0621798
0.0626988
0.0628102
0.0625571
0.0622886
0.0624483
0.0621463
0.0624396
0.0621302
0.0628854
0.0630256
0.0635583
0.0626483
0.0626286
0.06242
0.0622117
0.0635734
0.0638288
0.0639126
0.0640281
0.0636514
0.0638703
0.0632426
0.0631823
0.0634142
0.0636305
0.0638645
0.0632933
0.0635252
0.0627633
0.0631519
0.0628964
0.0629338
0.0632064
0.0629982
0.0627832
0.0625575
0.0622614
0.0625789
0.0627845
0.0624124
0.0622358
0.0635924
0.063427
0.0629953
0.0633223
0.063062
0.0629997
0.0630615
0.0625848
0.0622754
0.063349
0.0634254
0.0637781
0.0635768
0.063917
0.0635842
0.063943
0.0635189
0.0634228
0.063411
0.0632915
0.0629136
0.0628343
0.0627264
0.0624228
0.062687
0.0623405
0.0629694
0.0629878
0.0627195
0.062363
0.0624344
0.0640628
0.063657
0.0637761
0.0632175
0.0631899
0.0635366
0.0631872
0.062916
0.0627314
0.0623159
0.0636848
0.0640058
0.0638951
0.0643325
0.0642563
0.0641583
0.0640003
0.0637501
0.0631691
0.0631908
0.0629572
0.0624951
0.0628216
0.0630913
0.063424
0.0635355
0.063572
0.0636389
0.0630086
0.0623745
0.0632267
0.0632233
0.0615471
0.0621537
0.0614003
0.0623179
0.0618268
0.0621691
0.0627897
0.0612983
0.0613957
0.061747
0.0619388
0.0628002
0.0625808
0.0613275
0.0616157
0.0621001
0.0615519
0.0618641
0.063674
0.0636539
0.0636916
0.063545
0.0637019
0.063573
0.0637579
0.0634375
0.0636411
0.0636378
0.0636723
0.0636565
0.0634889
0.0635679
0.063577
0.0630038
0.0628569
0.0632131
0.0629453
0.0630912
0.0629794
0.0627589
0.0628707
0.0626344
0.0622596
0.0624223
0.0622255
0.0628574
0.0627301
0.0627455
0.0625377
0.0622052
0.0632517
0.0629316
0.0638016
0.0622052
0.0626694
0.0620801
0.062067
0.0620714
0.062096
0.0621212
0.0621095
0.0621352
0.0622203
0.0622097
0.0621454
0.062188
0.0621877
0.0622177
0.0621588
0.0614924
0.0621157
0.0621059
0.0620965
0.0635521
0.0632677
0.0640917
0.0638003
0.0623276
0.0627571
0.0620242
0.062183
0.0621853
0.0620287
0.0620359
0.0620317
0.062038
0.0620692
0.0620652
0.0620444
0.0620537
0.0620515
0.062058
0.0620655
0.0620418
0.0617629
0.0620356
0.062029
0.0620249
0.0635505
0.063739
0.063466
0.0636274
0.0637864
0.0639251
0.0638394
0.0641404
0.0640067
0.0643966
0.0633286
0.0635365
0.0636612
0.0639218
0.0632546
0.0635028
0.0636523
0.0629885
0.0628433
0.0631139
0.0632891
0.0627551
0.0628502
0.0631223
0.0635711
0.0631211
0.0626776
0.0637933
0.0634187
0.0629499
0.0623593
0.0610454
0.0618016
0.0608046
0.0606671
0.0603367
0.0609909
0.0607052
0.0604528
0.0611099
0.0612117
0.0609845
0.0605374
0.0617123
0.0616651
0.0616035
0.0617426
0.0613367
0.0611352
0.0609001
0.0606338
0.061688
0.0613901
0.0613127
0.0621838
0.061911
0.062041
0.0619499
0.0624686
0.0620426
0.0619678
0.0616172
0.0627045
0.0629827
0.0623853
0.062665
0.062406
0.0626882
0.0622433
0.0624089
0.0601768
0.0602069
0.0602579
0.0606098
0.0604286
0.0609914
0.0617244
0.0621695
0.0600604
0.0600751
0.0600967
0.0605512
0.0601709
0.0610424
0.0614722
0.0625818
0.0609106
0.060686
0.060848
0.0606826
0.0603115
0.0606958
0.0609054
0.0606974
0.0603987
0.0605493
0.0603018
0.060702
0.0604782
0.060295
0.0602632
0.0609527
0.0603697
0.0603362
0.0602071
0.060168
0.0601896
0.0607768
0.0604558
0.060403
0.0601113
0.0647382
0.0645457
0.0647486
0.0650759
0.0647066
0.0644041
0.0646844
0.0645249
0.0651186
0.0641084
0.0644647
0.0639829
0.064393
0.0640972
0.0642604
0.0643205
0.064107
0.0647661
0.0642815
0.0640078
0.0642999
0.0641673
0.0639066
0.0638924
0.0636852
0.0646927
0.0651186
0.0640772
0.0645785
0.0640932
0.0651186
0.0658987
0.0651186
0.0644587
0.0634668
0.0635161
0.063669
0.0636518
0.0637228
0.0636277
0.0637189
0.0635838
0.0633784
0.0628855
0.0629582
0.0626773
0.0641408
0.0640191
0.0639484
0.0636822
0.0638894
0.0632162
0.0635041
0.063716
0.0634488
0.0638489
0.0642687
0.0638135
0.064666
0.0644698
0.0647252
0.0639105
0.0640032
0.0634886
0.0633684
0.062941
0.0638854
0.0638074
0.0631211
0.063272
0.0635561
0.0636363
0.0627639
0.0628806
0.0633003
0.06267
0.0628465
0.0631461
0.0632831
0.0632631
0.062914
0.0629381
0.0636257
0.0636074
0.0637023
0.0636072
0.0632757
0.0635886
0.0638218
0.0625664
0.0626102
0.0624542
0.0623537
0.0622604
0.0626896
0.0629618
0.0635583
0.0624807
0.0623426
0.0621658
0.062743
0.0623899
0.0626076
0.0623005
0.0621388
0.0621478
0.0624761
0.0622653
0.0628768
0.0631359
0.0635583
0.0635583
0.0641824
0.0626428
0.0626221
0.0625124
0.0626118
0.0624634
0.0621987
0.0639483
0.0641002
0.0641782
0.0641824
0.0635787
0.0638645
0.0640985
0.0633944
0.0637395
0.0627886
0.0630794
0.0633116
0.0630366
0.0632389
0.0634204
0.0633083
0.0630718
0.0625606
0.062849
0.062251
0.0627535
0.0628146
0.0630092
0.0624178
0.062587
0.0622267
0.0639374
0.0633473
0.0633377
0.0628596
0.0634076
0.0625745
0.0622801
0.0641585
0.063897
0.0641325
0.0639114
0.0635398
0.0638828
0.063685
0.0637778
0.0630485
0.0632149
0.0638101
0.0631722
0.0627743
0.0629719
0.0624563
0.0624344
0.0628645
0.0626087
0.0623012
0.0623895
0.0632384
0.0629625
0.0632601
0.0627047
0.063062
0.0623887
0.0628769
0.0624509
0.0642546
0.0641782
0.0639101
0.0636114
0.0635838
0.063778
0.0638173
0.0637017
0.0632713
0.0629675
0.0629773
0.0626595
0.0623289
0.0639993
0.0641901
0.0640488
0.0646041
0.0643203
0.0639809
0.0635778
0.0637168
0.0627908
0.0631685
0.0633123
0.0635851
0.0634942
0.0638583
0.0638819
0.063932
0.0639354
0.0626775
0.06316
0.0632336
0.0635199
0.0632147
0.0617971
0.0623307
0.0623394
0.0614831
0.0626838
0.0621423
0.0631178
0.0626443
0.0612958
0.061873
0.0616342
0.0621213
0.062989
0.0630061
0.0625518
0.0628705
0.0622759
0.0611389
0.0619116
0.0611518
0.0625306
0.0618419
0.0611935
0.0620177
0.0615866
0.0639684
0.0639672
0.0638206
0.0638685
0.0638486
0.0640479
0.063592
0.063876
0.0639502
0.0639951
0.0638914
0.0636347
0.0637532
0.0636897
0.0637063
0.0633856
0.063103
0.0628247
0.0631747
0.063352
0.0631314
0.0627343
0.0624569
0.0622397
0.0625473
0.0626517
0.0625419
0.0622193
0.0629762
0.0626435
0.0623847
0.0621998
0.0635553
0.0632747
0.0641076
0.0638069
0.0623638
0.0627789
0.0620848
0.0622258
0.0622327
0.0621007
0.0621258
0.062111
0.062133
0.0622424
0.0622282
0.0621556
0.0621881
0.0621801
0.062203
0.0622292
0.0621461
0.0618211
0.0621244
0.0621013
0.0620869
0.0635785
0.0632629
0.0643227
0.0641695
0.0625961
0.063024
0.06225
0.0623463
0.0624123
0.0622689
0.0620348
0.0620328
0.0622619
0.0620409
0.0620695
0.0620699
0.0620661
0.0620497
0.0620444
0.0620609
0.0620499
0.0620572
0.0620614
0.0620424
0.0615937
0.0620321
0.0620281
0.0620239
0.0637123
0.0637788
0.0639133
0.0638796
0.0639607
0.0638262
0.0639908
0.0641702
0.0640337
0.0644152
0.0642834
0.0644543
0.0647131
0.0637178
0.0639539
0.0641291
0.0634559
0.0635705
0.0636972
0.0640245
0.0631351
0.0634021
0.0634592
0.0636468
0.0632167
0.0629999
0.0628018
0.0638412
0.0634797
0.0630288
0.0641672
0.0637773
0.0633803
0.0630441
0.0611282
0.0621171
0.0608414
0.0606347
0.0608552
0.0603521
0.0609382
0.0607153
0.0603985
0.0613808
0.0615778
0.0612216
0.0610896
0.0608957
0.0604878
0.0618221
0.0617226
0.0618492
0.0614433
0.0612432
0.061276
0.0608411
0.0609704
0.0606719
0.0619843
0.0616863
0.0616219
0.06121
0.062193
0.0624685
0.0623774
0.0618926
0.0627439
0.0626495
0.0623586
0.0620975
0.0620836
0.0619059
0.0619098
0.0629799
0.0630843
0.0627178
0.0629364
0.0627109
0.062932
0.0625482
0.0626746
0.0623306
0.0601726
0.060218
0.0602651
0.0607097
0.0603448
0.0611933
0.0616093
0.0626825
0.060087
0.0600821
0.060133
0.0603838
0.0601942
0.0609303
0.061742
0.0623855
0.0609082
0.0606668
0.0605013
0.0609735
0.0603914
0.0605605
0.0609839
0.0607701
0.0607144
0.0610441
0.0604714
0.0604571
0.0605599
0.0603446
0.0606482
0.0606971
0.0604728