# Region type : patch solid:1:24
# Faces  :    106
# Area   :    9.347373e-05
# Time        	sum(T)
0             	0.000000e+00
27            	2.234125e+06
