# vtk DataFile Version 5.1
vtk output
ASCII
DATASET STRUCTURED_GRID
FIELD FieldData 3
creationTime 1 1 string
Tue%20Feb%20%202%2016:12:02%202021

author 1 1 string
marco

path 1 1 string
/mnt/c/Users/marco/OneDrive%20-%20UNED/01_WORK/23_WATER_ACTIVATION/04_MOCKUP/02_ACTIVATION_SIMULATION

DIMENSIONS 87 9 9
POINTS 7047 double
-0.24 0.04 -0.04 -0.2323 0.04 -0.04 -0.2247 0.04 -0.04 
-0.217 0.04 -0.04 -0.2093 0.04 -0.04 -0.2016 0.04 -0.04 
-0.194 0.04 -0.04 -0.1863 0.04 -0.04 -0.1786 0.04 -0.04 
-0.1709 0.04 -0.04 -0.1633 0.04 -0.04 -0.1556 0.04 -0.04 
-0.1479 0.04 -0.04 -0.1402 0.04 -0.04 -0.1326 0.04 -0.04 
-0.1249 0.04 -0.04 -0.1172 0.04 -0.04 -0.1095 0.04 -0.04 
-0.1019 0.04 -0.04 -0.0942 0.04 -0.04 -0.0865 0.04 -0.04 
-0.0788 0.04 -0.04 -0.0712 0.04 -0.04 -0.0635 0.04 -0.04 
-0.0558 0.04 -0.04 -0.0481 0.04 -0.04 -0.0405 0.04 -0.04 
-0.0328 0.04 -0.04 -0.0251 0.04 -0.04 -0.0174 0.04 -0.04 
-0.0098 0.04 -0.04 -0.0021 0.04 -0.04 0.0056 0.04 -0.04 
0.0133 0.04 -0.04 0.0209 0.04 -0.04 0.0286 0.04 -0.04 
0.0363 0.04 -0.04 0.044 0.04 -0.04 0.0516 0.04 -0.04 
0.0593 0.04 -0.04 0.067 0.04 -0.04 0.0747 0.04 -0.04 
0.0823 0.04 -0.04 0.09 0.04 -0.04 0.0977 0.04 -0.04 
0.1053 0.04 -0.04 0.113 0.04 -0.04 0.1207 0.04 -0.04 
0.1284 0.04 -0.04 0.136 0.04 -0.04 0.1437 0.04 -0.04 
0.1514 0.04 -0.04 0.1591 0.04 -0.04 0.1667 0.04 -0.04 
0.1744 0.04 -0.04 0.1821 0.04 -0.04 0.1898 0.04 -0.04 
0.1974 0.04 -0.04 0.2051 0.04 -0.04 0.2128 0.04 -0.04 
0.2205 0.04 -0.04 0.2281 0.04 -0.04 0.2358 0.04 -0.04 
0.2435 0.04 -0.04 0.2512 0.04 -0.04 0.2588 0.04 -0.04 
0.2665 0.04 -0.04 0.2742 0.04 -0.04 0.2819 0.04 -0.04 
0.2895 0.04 -0.04 0.2972 0.04 -0.04 0.3049 0.04 -0.04 
0.3126 0.04 -0.04 0.3202 0.04 -0.04 0.3279 0.04 -0.04 
0.3356 0.04 -0.04 0.3433 0.04 -0.04 0.3509 0.04 -0.04 
0.3586 0.04 -0.04 0.3663 0.04 -0.04 0.374 0.04 -0.04 
0.3816 0.04 -0.04 0.3893 0.04 -0.04 0.397 0.04 -0.04 
0.4047 0.04 -0.04 0.4123 0.04 -0.04 0.42 0.04 -0.04 
-0.24 0.05 -0.04 -0.2323 0.05 -0.04 -0.2247 0.05 -0.04 
-0.217 0.05 -0.04 -0.2093 0.05 -0.04 -0.2016 0.05 -0.04 
-0.194 0.05 -0.04 -0.1863 0.05 -0.04 -0.1786 0.05 -0.04 
-0.1709 0.05 -0.04 -0.1633 0.05 -0.04 -0.1556 0.05 -0.04 
-0.1479 0.05 -0.04 -0.1402 0.05 -0.04 -0.1326 0.05 -0.04 
-0.1249 0.05 -0.04 -0.1172 0.05 -0.04 -0.1095 0.05 -0.04 
-0.1019 0.05 -0.04 -0.0942 0.05 -0.04 -0.0865 0.05 -0.04 
-0.0788 0.05 -0.04 -0.0712 0.05 -0.04 -0.0635 0.05 -0.04 
-0.0558 0.05 -0.04 -0.0481 0.05 -0.04 -0.0405 0.05 -0.04 
-0.0328 0.05 -0.04 -0.0251 0.05 -0.04 -0.0174 0.05 -0.04 
-0.0098 0.05 -0.04 -0.0021 0.05 -0.04 0.0056 0.05 -0.04 
0.0133 0.05 -0.04 0.0209 0.05 -0.04 0.0286 0.05 -0.04 
0.0363 0.05 -0.04 0.044 0.05 -0.04 0.0516 0.05 -0.04 
0.0593 0.05 -0.04 0.067 0.05 -0.04 0.0747 0.05 -0.04 
0.0823 0.05 -0.04 0.09 0.05 -0.04 0.0977 0.05 -0.04 
0.1053 0.05 -0.04 0.113 0.05 -0.04 0.1207 0.05 -0.04 
0.1284 0.05 -0.04 0.136 0.05 -0.04 0.1437 0.05 -0.04 
0.1514 0.05 -0.04 0.1591 0.05 -0.04 0.1667 0.05 -0.04 
0.1744 0.05 -0.04 0.1821 0.05 -0.04 0.1898 0.05 -0.04 
0.1974 0.05 -0.04 0.2051 0.05 -0.04 0.2128 0.05 -0.04 
0.2205 0.05 -0.04 0.2281 0.05 -0.04 0.2358 0.05 -0.04 
0.2435 0.05 -0.04 0.2512 0.05 -0.04 0.2588 0.05 -0.04 
0.2665 0.05 -0.04 0.2742 0.05 -0.04 0.2819 0.05 -0.04 
0.2895 0.05 -0.04 0.2972 0.05 -0.04 0.3049 0.05 -0.04 
0.3126 0.05 -0.04 0.3202 0.05 -0.04 0.3279 0.05 -0.04 
0.3356 0.05 -0.04 0.3433 0.05 -0.04 0.3509 0.05 -0.04 
0.3586 0.05 -0.04 0.3663 0.05 -0.04 0.374 0.05 -0.04 
0.3816 0.05 -0.04 0.3893 0.05 -0.04 0.397 0.05 -0.04 
0.4047 0.05 -0.04 0.4123 0.05 -0.04 0.42 0.05 -0.04 
-0.24 0.06 -0.04 -0.2323 0.06 -0.04 -0.2247 0.06 -0.04 
-0.217 0.06 -0.04 -0.2093 0.06 -0.04 -0.2016 0.06 -0.04 
-0.194 0.06 -0.04 -0.1863 0.06 -0.04 -0.1786 0.06 -0.04 
-0.1709 0.06 -0.04 -0.1633 0.06 -0.04 -0.1556 0.06 -0.04 
-0.1479 0.06 -0.04 -0.1402 0.06 -0.04 -0.1326 0.06 -0.04 
-0.1249 0.06 -0.04 -0.1172 0.06 -0.04 -0.1095 0.06 -0.04 
-0.1019 0.06 -0.04 -0.0942 0.06 -0.04 -0.0865 0.06 -0.04 
-0.0788 0.06 -0.04 -0.0712 0.06 -0.04 -0.0635 0.06 -0.04 
-0.0558 0.06 -0.04 -0.0481 0.06 -0.04 -0.0405 0.06 -0.04 
-0.0328 0.06 -0.04 -0.0251 0.06 -0.04 -0.0174 0.06 -0.04 
-0.0098 0.06 -0.04 -0.0021 0.06 -0.04 0.0056 0.06 -0.04 
0.0133 0.06 -0.04 0.0209 0.06 -0.04 0.0286 0.06 -0.04 
0.0363 0.06 -0.04 0.044 0.06 -0.04 0.0516 0.06 -0.04 
0.0593 0.06 -0.04 0.067 0.06 -0.04 0.0747 0.06 -0.04 
0.0823 0.06 -0.04 0.09 0.06 -0.04 0.0977 0.06 -0.04 
0.1053 0.06 -0.04 0.113 0.06 -0.04 0.1207 0.06 -0.04 
0.1284 0.06 -0.04 0.136 0.06 -0.04 0.1437 0.06 -0.04 
0.1514 0.06 -0.04 0.1591 0.06 -0.04 0.1667 0.06 -0.04 
0.1744 0.06 -0.04 0.1821 0.06 -0.04 0.1898 0.06 -0.04 
0.1974 0.06 -0.04 0.2051 0.06 -0.04 0.2128 0.06 -0.04 
0.2205 0.06 -0.04 0.2281 0.06 -0.04 0.2358 0.06 -0.04 
0.2435 0.06 -0.04 0.2512 0.06 -0.04 0.2588 0.06 -0.04 
0.2665 0.06 -0.04 0.2742 0.06 -0.04 0.2819 0.06 -0.04 
0.2895 0.06 -0.04 0.2972 0.06 -0.04 0.3049 0.06 -0.04 
0.3126 0.06 -0.04 0.3202 0.06 -0.04 0.3279 0.06 -0.04 
0.3356 0.06 -0.04 0.3433 0.06 -0.04 0.3509 0.06 -0.04 
0.3586 0.06 -0.04 0.3663 0.06 -0.04 0.374 0.06 -0.04 
0.3816 0.06 -0.04 0.3893 0.06 -0.04 0.397 0.06 -0.04 
0.4047 0.06 -0.04 0.4123 0.06 -0.04 0.42 0.06 -0.04 
-0.24 0.07 -0.04 -0.2323 0.07 -0.04 -0.2247 0.07 -0.04 
-0.217 0.07 -0.04 -0.2093 0.07 -0.04 -0.2016 0.07 -0.04 
-0.194 0.07 -0.04 -0.1863 0.07 -0.04 -0.1786 0.07 -0.04 
-0.1709 0.07 -0.04 -0.1633 0.07 -0.04 -0.1556 0.07 -0.04 
-0.1479 0.07 -0.04 -0.1402 0.07 -0.04 -0.1326 0.07 -0.04 
-0.1249 0.07 -0.04 -0.1172 0.07 -0.04 -0.1095 0.07 -0.04 
-0.1019 0.07 -0.04 -0.0942 0.07 -0.04 -0.0865 0.07 -0.04 
-0.0788 0.07 -0.04 -0.0712 0.07 -0.04 -0.0635 0.07 -0.04 
-0.0558 0.07 -0.04 -0.0481 0.07 -0.04 -0.0405 0.07 -0.04 
-0.0328 0.07 -0.04 -0.0251 0.07 -0.04 -0.0174 0.07 -0.04 
-0.0098 0.07 -0.04 -0.0021 0.07 -0.04 0.0056 0.07 -0.04 
0.0133 0.07 -0.04 0.0209 0.07 -0.04 0.0286 0.07 -0.04 
0.0363 0.07 -0.04 0.044 0.07 -0.04 0.0516 0.07 -0.04 
0.0593 0.07 -0.04 0.067 0.07 -0.04 0.0747 0.07 -0.04 
0.0823 0.07 -0.04 0.09 0.07 -0.04 0.0977 0.07 -0.04 
0.1053 0.07 -0.04 0.113 0.07 -0.04 0.1207 0.07 -0.04 
0.1284 0.07 -0.04 0.136 0.07 -0.04 0.1437 0.07 -0.04 
0.1514 0.07 -0.04 0.1591 0.07 -0.04 0.1667 0.07 -0.04 
0.1744 0.07 -0.04 0.1821 0.07 -0.04 0.1898 0.07 -0.04 
0.1974 0.07 -0.04 0.2051 0.07 -0.04 0.2128 0.07 -0.04 
0.2205 0.07 -0.04 0.2281 0.07 -0.04 0.2358 0.07 -0.04 
0.2435 0.07 -0.04 0.2512 0.07 -0.04 0.2588 0.07 -0.04 
0.2665 0.07 -0.04 0.2742 0.07 -0.04 0.2819 0.07 -0.04 
0.2895 0.07 -0.04 0.2972 0.07 -0.04 0.3049 0.07 -0.04 
0.3126 0.07 -0.04 0.3202 0.07 -0.04 0.3279 0.07 -0.04 
0.3356 0.07 -0.04 0.3433 0.07 -0.04 0.3509 0.07 -0.04 
0.3586 0.07 -0.04 0.3663 0.07 -0.04 0.374 0.07 -0.04 
0.3816 0.07 -0.04 0.3893 0.07 -0.04 0.397 0.07 -0.04 
0.4047 0.07 -0.04 0.4123 0.07 -0.04 0.42 0.07 -0.04 
-0.24 0.08 -0.04 -0.2323 0.08 -0.04 -0.2247 0.08 -0.04 
-0.217 0.08 -0.04 -0.2093 0.08 -0.04 -0.2016 0.08 -0.04 
-0.194 0.08 -0.04 -0.1863 0.08 -0.04 -0.1786 0.08 -0.04 
-0.1709 0.08 -0.04 -0.1633 0.08 -0.04 -0.1556 0.08 -0.04 
-0.1479 0.08 -0.04 -0.1402 0.08 -0.04 -0.1326 0.08 -0.04 
-0.1249 0.08 -0.04 -0.1172 0.08 -0.04 -0.1095 0.08 -0.04 
-0.1019 0.08 -0.04 -0.0942 0.08 -0.04 -0.0865 0.08 -0.04 
-0.0788 0.08 -0.04 -0.0712 0.08 -0.04 -0.0635 0.08 -0.04 
-0.0558 0.08 -0.04 -0.0481 0.08 -0.04 -0.0405 0.08 -0.04 
-0.0328 0.08 -0.04 -0.0251 0.08 -0.04 -0.0174 0.08 -0.04 
-0.0098 0.08 -0.04 -0.0021 0.08 -0.04 0.0056 0.08 -0.04 
0.0133 0.08 -0.04 0.0209 0.08 -0.04 0.0286 0.08 -0.04 
0.0363 0.08 -0.04 0.044 0.08 -0.04 0.0516 0.08 -0.04 
0.0593 0.08 -0.04 0.067 0.08 -0.04 0.0747 0.08 -0.04 
0.0823 0.08 -0.04 0.09 0.08 -0.04 0.0977 0.08 -0.04 
0.1053 0.08 -0.04 0.113 0.08 -0.04 0.1207 0.08 -0.04 
0.1284 0.08 -0.04 0.136 0.08 -0.04 0.1437 0.08 -0.04 
0.1514 0.08 -0.04 0.1591 0.08 -0.04 0.1667 0.08 -0.04 
0.1744 0.08 -0.04 0.1821 0.08 -0.04 0.1898 0.08 -0.04 
0.1974 0.08 -0.04 0.2051 0.08 -0.04 0.2128 0.08 -0.04 
0.2205 0.08 -0.04 0.2281 0.08 -0.04 0.2358 0.08 -0.04 
0.2435 0.08 -0.04 0.2512 0.08 -0.04 0.2588 0.08 -0.04 
0.2665 0.08 -0.04 0.2742 0.08 -0.04 0.2819 0.08 -0.04 
0.2895 0.08 -0.04 0.2972 0.08 -0.04 0.3049 0.08 -0.04 
0.3126 0.08 -0.04 0.3202 0.08 -0.04 0.3279 0.08 -0.04 
0.3356 0.08 -0.04 0.3433 0.08 -0.04 0.3509 0.08 -0.04 
0.3586 0.08 -0.04 0.3663 0.08 -0.04 0.374 0.08 -0.04 
0.3816 0.08 -0.04 0.3893 0.08 -0.04 0.397 0.08 -0.04 
0.4047 0.08 -0.04 0.4123 0.08 -0.04 0.42 0.08 -0.04 
-0.24 0.09 -0.04 -0.2323 0.09 -0.04 -0.2247 0.09 -0.04 
-0.217 0.09 -0.04 -0.2093 0.09 -0.04 -0.2016 0.09 -0.04 
-0.194 0.09 -0.04 -0.1863 0.09 -0.04 -0.1786 0.09 -0.04 
-0.1709 0.09 -0.04 -0.1633 0.09 -0.04 -0.1556 0.09 -0.04 
-0.1479 0.09 -0.04 -0.1402 0.09 -0.04 -0.1326 0.09 -0.04 
-0.1249 0.09 -0.04 -0.1172 0.09 -0.04 -0.1095 0.09 -0.04 
-0.1019 0.09 -0.04 -0.0942 0.09 -0.04 -0.0865 0.09 -0.04 
-0.0788 0.09 -0.04 -0.0712 0.09 -0.04 -0.0635 0.09 -0.04 
-0.0558 0.09 -0.04 -0.0481 0.09 -0.04 -0.0405 0.09 -0.04 
-0.0328 0.09 -0.04 -0.0251 0.09 -0.04 -0.0174 0.09 -0.04 
-0.0098 0.09 -0.04 -0.0021 0.09 -0.04 0.0056 0.09 -0.04 
0.0133 0.09 -0.04 0.0209 0.09 -0.04 0.0286 0.09 -0.04 
0.0363 0.09 -0.04 0.044 0.09 -0.04 0.0516 0.09 -0.04 
0.0593 0.09 -0.04 0.067 0.09 -0.04 0.0747 0.09 -0.04 
0.0823 0.09 -0.04 0.09 0.09 -0.04 0.0977 0.09 -0.04 
0.1053 0.09 -0.04 0.113 0.09 -0.04 0.1207 0.09 -0.04 
0.1284 0.09 -0.04 0.136 0.09 -0.04 0.1437 0.09 -0.04 
0.1514 0.09 -0.04 0.1591 0.09 -0.04 0.1667 0.09 -0.04 
0.1744 0.09 -0.04 0.1821 0.09 -0.04 0.1898 0.09 -0.04 
0.1974 0.09 -0.04 0.2051 0.09 -0.04 0.2128 0.09 -0.04 
0.2205 0.09 -0.04 0.2281 0.09 -0.04 0.2358 0.09 -0.04 
0.2435 0.09 -0.04 0.2512 0.09 -0.04 0.2588 0.09 -0.04 
0.2665 0.09 -0.04 0.2742 0.09 -0.04 0.2819 0.09 -0.04 
0.2895 0.09 -0.04 0.2972 0.09 -0.04 0.3049 0.09 -0.04 
0.3126 0.09 -0.04 0.3202 0.09 -0.04 0.3279 0.09 -0.04 
[...]
CELL_DATA 5504
FIELD FieldData 2
Value%20-%20Total 1 5504 double
1.59591e-07 1.71035e-07 1.84107e-07 1.98184e-07 2.12977e-07 2.29492e-07 2.48628e-07 2.6994e-07 2.93282e-07 
3.20148e-07 3.51734e-07 3.85545e-07 4.22179e-07 4.63885e-07 5.11992e-07 5.68391e-07 6.33191e-07 7.06915e-07 
7.92192e-07 8.90123e-07 1.00682e-06 1.1422e-06 1.30055e-06 1.48599e-06 1.70204e-06 1.94342e-06 2.21237e-06 
2.4935e-06 2.76184e-06 2.98478e-06 3.12834e-06 3.16006e-06 3.07496e-06 2.89012e-06 2.63853e-06 2.36473e-06 
2.08909e-06 1.82915e-06 1.59705e-06 1.39842e-06 1.22841e-06 1.08112e-06 9.5508e-07 8.45707e-07 7.52731e-07 
6.72962e-07 6.04371e-07 5.43038e-07 4.90558e-07 4.45238e-07 4.06452e-07 3.71136e-07 3.38776e-07 3.09585e-07 
2.83242e-07 2.60199e-07 2.4024e-07 2.22547e-07 2.07465e-07 1.93351e-07 1.80483e-07 1.6847e-07 1.5739e-07 
1.47162e-07 1.37672e-07 1.29458e-07 1.21956e-07 1.15018e-07 1.08678e-07 1.03062e-07 9.78624e-08 9.31876e-08 
8.87684e-08 8.46807e-08 8.07818e-08 7.74829e-08 7.40981e-08 7.10216e-08 6.80772e-08 6.55625e-08 6.31066e-08 
6.05599e-08 5.82617e-08 5.59151e-08 5.38641e-08 5.19727e-08 1.63374e-07 1.74361e-07 1.86281e-07 1.99256e-07 
2.14344e-07 2.31024e-07 2.49995e-07 2.70141e-07 2.91759e-07 3.15582e-07 3.41698e-07 3.72237e-07 4.08977e-07 
4.48388e-07 4.90479e-07 5.38126e-07 5.95537e-07 6.60645e-07 7.34369e-07 8.19624e-07 9.17939e-07 1.0297e-06 
1.15868e-06 1.30454e-06 1.47161e-06 1.65087e-06 1.83967e-06 2.02791e-06 2.2008e-06 2.33744e-06 2.42474e-06 
2.44628e-06 2.39436e-06 2.28253e-06 2.12166e-06 1.94262e-06 1.75134e-06 1.56524e-06 1.39213e-06 1.23659e-06 
1.0995e-06 9.8121e-07 8.75873e-07 7.84683e-07 7.04579e-07 6.34741e-07 5.72142e-07 5.19062e-07 4.73035e-07 
4.32895e-07 3.94614e-07 3.59476e-07 3.30345e-07 3.05362e-07 2.8348e-07 2.62936e-07 2.43198e-07 2.25022e-07 
2.086e-07 1.94057e-07 1.81417e-07 1.70286e-07 1.60372e-07 1.51065e-07 1.42205e-07 1.33877e-07 1.26104e-07 
1.1902e-07 1.12419e-07 1.06298e-07 1.01163e-07 9.616e-08 9.14413e-08 8.70131e-08 8.28176e-08 7.88343e-08 
7.55734e-08 7.21987e-08 6.89212e-08 6.59785e-08 6.34082e-08 6.10539e-08 5.85993e-08 5.63699e-08 5.41384e-08 
5.21207e-08 1.64109e-07 1.75139e-07 1.87117e-07 1.99807e-07 2.13673e-07 2.28509e-07 2.44797e-07 2.62418e-07 
2.84109e-07 3.0684e-07 3.31872e-07 3.59233e-07 3.88732e-07 4.23878e-07 4.65802e-07 5.10208e-07 5.59961e-07 
6.15978e-07 6.80841e-07 7.55971e-07 8.34144e-07 9.20318e-07 1.02462e-06 1.14083e-06 1.26219e-06 1.39097e-06 
1.52191e-06 1.64878e-06 1.76109e-06 1.85047e-06 1.9024e-06 1.91466e-06 1.88348e-06 1.81365e-06 1.71499e-06 
1.59572e-06 1.4648e-06 1.33419e-06 1.20547e-06 1.08628e-06 9.79283e-07 8.81705e-07 7.9481e-07 7.19538e-07 
6.5136e-07 5.95758e-07 5.44381e-07 4.95423e-07 4.53086e-07 4.14714e-07 3.80884e-07 3.52551e-07 3.26621e-07 
3.01324e-07 2.77199e-07 2.56364e-07 2.38788e-07 2.23615e-07 2.09584e-07 1.96984e-07 1.8419e-07 1.72235e-07 
1.61375e-07 1.52071e-07 1.43271e-07 1.35055e-07 1.27796e-07 1.21083e-07 1.14767e-07 1.09026e-07 1.03316e-07 
9.81556e-08 9.32961e-08 8.87664e-08 8.45975e-08 8.10924e-08 7.72387e-08 7.41831e-08 7.1142e-08 6.8123e-08 
6.50658e-08 6.21804e-08 5.95401e-08 5.74126e-08 5.52702e-08 5.31514e-08 1.63919e-07 1.73442e-07 1.84088e-07 
1.96107e-07 2.09418e-07 2.24281e-07 2.39945e-07 2.57007e-07 2.7488e-07 2.95273e-07 3.1811e-07 3.44162e-07 
3.73483e-07 4.06264e-07 4.41488e-07 4.73457e-07 4.98509e-07 5.33713e-07 5.8582e-07 6.27866e-07 6.81978e-07 
7.56956e-07 8.35595e-07 9.20063e-07 1.00952e-06 1.09863e-06 1.19007e-06 1.27355e-06 1.34721e-06 1.40463e-06 
1.43589e-06 1.44467e-06 1.42171e-06 1.38075e-06 1.31507e-06 1.23885e-06 1.15262e-06 1.06077e-06 9.70012e-07 
8.81605e-07 7.99956e-07 7.25581e-07 6.56644e-07 5.93099e-07 5.38379e-07 4.87815e-07 4.50637e-07 4.22728e-07 
3.95202e-07 3.72846e-07 3.57855e-07 3.38699e-07 3.14195e-07 2.91578e-07 2.72797e-07 2.55561e-07 2.38348e-07 
2.21152e-07 2.06254e-07 1.92976e-07 1.81626e-07 1.71532e-07 1.62499e-07 1.53876e-07 1.45395e-07 1.37791e-07 
1.30068e-07 1.23464e-07 1.16612e-07 1.10427e-07 1.04689e-07 9.96676e-08 9.50634e-08 9.06532e-08 8.6468e-08 
8.26157e-08 7.92032e-08 7.57149e-08 7.23999e-08 6.9237e-08 6.62184e-08 6.37505e-08 6.10512e-08 5.86183e-08 
5.64178e-08 5.4292e-08 1.60939e-07 1.70964e-07 1.81629e-07 1.93013e-07 2.0508e-07 2.17415e-07 2.31546e-07 
2.47955e-07 2.66112e-07 2.85262e-07 3.06803e-07 3.31389e-07 3.56993e-07 3.73563e-07 3.7485e-07 3.76722e-07 
3.92047e-07 4.11464e-07 4.33193e-07 4.73737e-07 5.25189e-07 5.79717e-07 6.38288e-07 6.99497e-07 7.59383e-07 
8.22331e-07 8.84462e-07 9.38917e-07 9.88036e-07 1.02245e-06 1.04275e-06 1.04856e-06 1.03464e-06 1.00778e-06 
9.66142e-07 9.16367e-07 8.57514e-07 7.96884e-07 7.32612e-07 6.7109e-07 6.10211e-07 5.55201e-07 5.0566e-07 
4.58385e-07 4.13185e-07 3.73121e-07 3.38531e-07 3.07489e-07 2.88445e-07 2.81866e-07 2.77088e-07 2.75383e-07 
2.79764e-07 2.77751e-07 2.64966e-07 2.4675e-07 2.31053e-07 2.17967e-07 2.05808e-07 1.93587e-07 1.81545e-07 
1.7032e-07 1.60348e-07 1.51605e-07 1.43404e-07 1.36318e-07 1.2997e-07 1.23537e-07 1.17835e-07 1.12038e-07 
1.06539e-07 1.01523e-07 9.68113e-08 9.22034e-08 8.79965e-08 8.38279e-08 7.98444e-08 7.62008e-08 7.31075e-08 
7.00834e-08 6.74053e-08 6.47325e-08 6.21949e-08 5.98416e-08 5.76749e-08 5.54587e-08 1.58869e-07 1.67498e-07 
1.76375e-07 1.86676e-07 1.98779e-07 2.12193e-07 2.25727e-07 2.39698e-07 2.56095e-07 2.75377e-07 2.94445e-07 
3.03754e-07 3.00366e-07 2.93087e-07 2.89192e-07 2.89154e-07 2.88799e-07 3.03188e-07 3.33192e-07 3.69537e-07 
4.07419e-07 4.49389e-07 4.91702e-07 5.34286e-07 5.78093e-07 6.2229e-07 6.63848e-07 7.00217e-07 7.31835e-07 
7.54261e-07 7.66779e-07 7.72098e-07 7.63831e-07 7.4477e-07 7.18823e-07 6.84811e-07 6.44313e-07 6.03834e-07 
5.58063e-07 5.15243e-07 4.73061e-07 4.31216e-07 3.92137e-07 3.56959e-07 3.24084e-07 2.93032e-07 2.64021e-07 
2.37792e-07 2.17856e-07 2.02986e-07 1.98208e-07 2.03632e-07 2.10022e-07 2.16007e-07 2.23554e-07 2.27865e-07 
2.239e-07 2.12612e-07 1.99178e-07 1.87846e-07 1.77975e-07 1.69508e-07 1.60867e-07 1.51519e-07 1.43243e-07 
1.35632e-07 1.28716e-07 1.22092e-07 1.15846e-07 1.10383e-07 1.05412e-07 1.00919e-07 9.67361e-08 9.25788e-08 
8.84275e-08 8.45627e-08 8.08775e-08 7.7415e-08 7.39324e-08 7.09474e-08 6.78321e-08 6.51079e-08 6.25118e-08 
5.99712e-08 5.77364e-08 5.58016e-08 1.53268e-07 1.62664e-07 1.7251e-07 1.82348e-07 1.92302e-07 2.03921e-07 
2.17246e-07 2.32455e-07 2.45904e-07 2.51677e-07 2.48736e-07 2.43969e-07 2.40805e-07 2.36116e-07 2.25679e-07 
2.19679e-07 2.27748e-07 2.43897e-07 2.69958e-07 2.97578e-07 3.27544e-07 3.58097e-07 3.89566e-07 4.21638e-07 
4.54732e-07 4.84234e-07 5.13173e-07 5.38689e-07 5.60068e-07 5.75806e-07 5.8335e-07 5.87402e-07 5.83003e-07 
5.68657e-07 5.52896e-07 5.27503e-07 4.99978e-07 4.70833e-07 4.39897e-07 4.06941e-07 3.77188e-07 3.46091e-07 
3.16935e-07 2.87891e-07 2.62233e-07 2.37805e-07 2.15931e-07 1.95186e-07 1.77424e-07 1.65271e-07 1.57676e-07 
1.54394e-07 1.57918e-07 1.66229e-07 1.73661e-07 1.78327e-07 1.82857e-07 1.88118e-07 1.89044e-07 1.83304e-07 
1.73698e-07 1.63601e-07 1.55075e-07 1.48314e-07 1.4211e-07 1.35572e-07 1.27977e-07 1.21598e-07 1.15706e-07 
1.09943e-07 1.04582e-07 9.93335e-08 9.46682e-08 9.07789e-08 8.72232e-08 8.39454e-08 8.06929e-08 7.71528e-08 
7.39878e-08 7.10181e-08 6.79889e-08 6.52288e-08 6.26718e-08 6.04824e-08 5.82737e-08 5.58814e-08 1.50193e-07 
1.57794e-07 1.66487e-07 1.76112e-07 1.87075e-07 1.98714e-07 2.08213e-07 2.11834e-07 2.09054e-07 2.06767e-07 
2.06843e-07 2.05429e-07 1.98906e-07 1.86177e-07 1.80468e-07 1.82149e-07 1.89686e-07 2.0392e-07 2.22743e-07 
2.44897e-07 2.68065e-07 2.91158e-07 3.14258e-07 3.39431e-07 3.61496e-07 3.84135e-07 4.05469e-07 4.22692e-07 
4.37629e-07 4.48862e-07 4.53685e-07 4.5716e-07 4.52637e-07 4.43928e-07 4.32495e-07 4.16187e-07 3.94972e-07 
3.75016e-07 3.52297e-07 3.2828e-07 3.04747e-07 2.82087e-07 2.59947e-07 2.38556e-07 2.16524e-07 1.98095e-07 
1.79783e-07 1.63045e-07 1.50226e-07 1.40295e-07 1.33128e-07 1.30459e-07 1.30483e-07 1.32286e-07 1.37229e-07 
1.43875e-07 1.49522e-07 1.51402e-07 1.52747e-07 1.56507e-07 1.59424e-07 1.57781e-07 1.51949e-07 1.44406e-07 
1.36978e-07 1.30522e-07 1.25259e-07 1.20319e-07 1.14907e-07 1.09363e-07 1.04245e-07 9.96232e-08 9.5109e-08 
9.07761e-08 8.63797e-08 8.21679e-08 7.85773e-08 7.56687e-08 7.3314e-08 7.0561e-08 6.80687e-08 6.57268e-08 
6.30915e-08 6.04864e-08 5.80947e-08 5.59983e-08 1.6305e-07 1.75312e-07 1.87969e-07 2.01711e-07 2.17306e-07 
2.34887e-07 2.53452e-07 2.74041e-07 2.98539e-07 3.26793e-07 3.57552e-07 3.92992e-07 4.32516e-07 4.77588e-07 
5.28494e-07 5.88136e-07 6.57789e-07 7.37521e-07 8.29506e-07 9.39741e-07 1.06965e-06 1.2246e-06 1.40999e-06 
1.63101e-06 1.89291e-06 2.20493e-06 2.55878e-06 2.93662e-06 3.31362e-06 3.64453e-06 3.85715e-06 3.90585e-06 
3.77902e-06 3.50428e-06 3.15082e-06 2.7616e-06 2.38873e-06 2.05715e-06 1.76959e-06 1.52903e-06 1.32654e-06 
1.15634e-06 1.01214e-06 8.90537e-07 7.88999e-07 7.04078e-07 6.2967e-07 5.619e-07 5.052e-07 4.57706e-07 
4.15264e-07 3.7813e-07 3.44664e-07 3.14215e-07 2.88163e-07 2.6533e-07 2.45099e-07 2.27143e-07 2.10126e-07 
1.95414e-07 1.81897e-07 1.69542e-07 1.58648e-07 1.48441e-07 1.39128e-07 1.30884e-07 1.23678e-07 1.16646e-07 
1.10356e-07 1.04304e-07 9.85984e-08 9.388e-08 8.96269e-08 8.55543e-08 8.15618e-08 7.7847e-08 7.44114e-08 
7.13041e-08 6.83519e-08 6.56822e-08 6.31837e-08 6.0894e-08 5.87222e-08 5.66918e-08 5.46223e-08 5.27995e-08 
1.65994e-07 1.76809e-07 1.8917e-07 2.03151e-07 2.18345e-07 2.34866e-07 2.54088e-07 2.74762e-07 2.96724e-07 
3.21784e-07 3.49934e-07 3.8157e-07 4.18743e-07 4.59237e-07 5.04726e-07 5.56711e-07 6.16836e-07 6.87246e-07 
7.68447e-07 8.54863e-07 9.63308e-07 1.08973e-06 1.21898e-06 1.38637e-06 1.58299e-06 1.79848e-06 2.03327e-06 
2.27019e-06 2.49451e-06 2.68066e-06 2.79491e-06 2.82032e-06 2.75092e-06 2.60282e-06 2.39808e-06 2.16566e-06 
1.92629e-06 1.69626e-06 1.49096e-06 1.30718e-06 1.14841e-06 1.01375e-06 8.96602e-07 8.08023e-07 7.2945e-07 
6.53301e-07 5.92528e-07 5.36686e-07 4.88074e-07 4.44376e-07 4.04245e-07 3.68176e-07 3.37565e-07 3.11414e-07 
2.88131e-07 2.67002e-07 2.47218e-07 2.29452e-07 2.13485e-07 1.98533e-07 1.8502e-07 1.731e-07 1.61884e-07 
1.52211e-07 1.43735e-07 1.35258e-07 1.27702e-07 1.20801e-07 1.14089e-07 1.08176e-07 1.02407e-07 9.71134e-08 
9.20722e-08 8.7521e-08 8.34342e-08 7.96156e-08 7.61089e-08 7.25427e-08 6.93103e-08 6.65174e-08 6.37998e-08 
6.13175e-08 5.88339e-08 5.67286e-08 5.46992e-08 5.25983e-08 1.67279e-07 1.78441e-07 1.90571e-07 2.03355e-07 
2.16669e-07 2.32242e-07 2.4863e-07 2.68224e-07 2.89942e-07 3.13805e-07 3.39147e-07 3.67615e-07 3.99794e-07 
4.36469e-07 4.78116e-07 5.26462e-07 5.82721e-07 6.28165e-07 6.46356e-07 6.76715e-07 7.4961e-07 8.11312e-07 
9.10613e-07 1.03155e-06 1.16447e-06 1.3082e-06 1.45444e-06 1.60128e-06 1.72913e-06 1.83431e-06 1.89582e-06 
1.91083e-06 1.87147e-06 1.78963e-06 1.67322e-06 1.5358e-06 1.38709e-06 1.24237e-06 1.10319e-06 9.76385e-07 
8.62829e-07 7.61423e-07 6.73396e-07 5.96617e-07 5.43665e-07 5.03513e-07 4.80528e-07 4.7601e-07 4.61446e-07 
4.28307e-07 3.92619e-07 3.62063e-07 3.35053e-07 3.08815e-07 2.8471e-07 2.63663e-07 2.44818e-07 2.28625e-07 
2.14384e-07 2.0106e-07 1.89003e-07 1.77165e-07 1.66602e-07 1.5641e-07 1.46808e-07 1.38328e-07 1.30468e-07 
1.23364e-07 1.17263e-07 1.1156e-07 1.06084e-07 1.00719e-07 9.56245e-08 9.08766e-08 8.67925e-08 8.27238e-08 
7.89504e-08 7.54845e-08 7.23581e-08 6.89784e-08 6.59538e-08 6.29733e-08 6.05218e-08 5.83277e-08 5.57775e-08 
5.34615e-08 1.657e-07 1.76053e-07 1.86978e-07 1.99256e-07 2.13682e-07 2.2868e-07 2.45312e-07 2.62106e-07 
2.80372e-07 3.01624e-07 3.26391e-07 3.53734e-07 3.83327e-07 4.17967e-07 4.56835e-07 4.84356e-07 4.88723e-07 
4.87833e-07 4.89944e-07 4.92282e-07 5.36107e-07 6.07738e-07 6.86904e-07 7.705e-07 8.63335e-07 9.5637e-07 
1.05269e-06 1.14202e-06 1.21929e-06 1.28055e-06 1.31533e-06 1.32576e-06 1.30324e-06 1.25539e-06 1.18616e-06 
1.10093e-06 1.01026e-06 9.13085e-07 8.22499e-07 7.33698e-07 6.50566e-07 5.7766e-07 5.12535e-07 4.54154e-07 
4.01571e-07 3.55997e-07 3.39578e-07 3.48234e-07 3.56103e-07 3.62732e-07 3.64748e-07 3.51792e-07 3.26543e-07 
3.02645e-07 2.82491e-07 2.64463e-07 2.46359e-07 2.2928e-07 2.13639e-07 2.00168e-07 1.8758e-07 1.76622e-07 
1.67076e-07 1.57958e-07 1.49528e-07 1.40949e-07 1.33223e-07 1.26014e-07 1.19308e-07 1.12827e-07 1.07126e-07 
1.01741e-07 9.68663e-08 9.22723e-08 8.82922e-08 8.47057e-08 8.09007e-08 7.74482e-08 7.41902e-08 7.09849e-08 
6.81568e-08 6.53165e-08 6.25989e-08 5.97058e-08 5.72429e-08 5.50436e-08 1.63702e-07 1.73843e-07 1.85359e-07 
1.96962e-07 2.08716e-07 2.21633e-07 2.3623e-07 2.53605e-07 2.72678e-07 2.92639e-07 3.15147e-07 3.4094e-07 
3.68289e-07 3.84744e-07 3.84875e-07 3.84293e-07 3.89908e-07 3.82048e-07 3.62901e-07 3.7458e-07 4.22596e-07 
4.76795e-07 5.31633e-07 5.93312e-07 6.55558e-07 7.1979e-07 7.8172e-07 8.37727e-07 8.86906e-07 9.2508e-07 
9.47273e-07 9.53118e-07 9.3984e-07 9.09766e-07 8.67006e-07 8.13216e-07 7.54342e-07 6.90607e-07 6.26637e-07 
5.66174e-07 5.08497e-07 4.53167e-07 4.04571e-07 3.61027e-07 3.21612e-07 2.83726e-07 2.63246e-07 2.60109e-07 
2.66938e-07 2.77379e-07 2.81787e-07 2.8408e-07 2.8942e-07 2.87622e-07 2.75044e-07 2.55965e-07 2.3993e-07 
2.25817e-07 2.13107e-07 2.00104e-07 1.8773e-07 1.76291e-07 1.65498e-07 1.55633e-07 1.46537e-07 1.39054e-07 
1.32217e-07 1.25896e-07 1.1992e-07 1.13733e-07 1.08061e-07 1.02627e-07 9.75722e-08 9.25555e-08 8.84365e-08 
8.4524e-08 8.09278e-08 7.73365e-08 7.40096e-08 7.09953e-08 6.82714e-08 6.56657e-08 6.34021e-08 6.11207e-08 
5.86027e-08 5.61492e-08 1.61208e-07 1.6947e-07 1.7847e-07 1.89096e-07 2.02e-07 2.16133e-07 2.30634e-07 
2.46286e-07 2.63897e-07 2.83455e-07 3.02045e-07 3.12426e-07 3.10873e-07 3.11279e-07 3.19062e-07 3.21182e-07 
3.05451e-07 2.91811e-07 2.89246e-07 3.00256e-07 3.35665e-07 3.73546e-07 4.16342e-07 4.59109e-07 5.02901e-07 
5.46018e-07 5.86581e-07 6.22595e-07 6.54854e-07 6.80433e-07 6.93547e-07 6.97956e-07 6.89529e-07 6.7042e-07 
6.4225e-07 6.08456e-07 5.68498e-07 5.26516e-07 4.82662e-07 4.39847e-07 3.98463e-07 3.58548e-07 3.21124e-07 
2.87751e-07 2.56708e-07 2.28525e-07 2.13071e-07 2.10992e-07 2.12037e-07 2.14997e-07 2.2132e-07 2.28354e-07 
2.2916e-07 2.2631e-07 2.28384e-07 2.31482e-07 2.26161e-07 2.14647e-07 2.01251e-07 1.8966e-07 1.7973e-07 
1.70123e-07 1.60811e-07 1.51406e-07 1.42859e-07 1.34923e-07 1.27532e-07 1.20517e-07 1.14294e-07 1.09066e-07 
1.04537e-07 9.98832e-08 9.54015e-08 9.1051e-08 8.67293e-08 8.2419e-08 7.88153e-08 7.5468e-08 7.21526e-08 
6.93664e-08 6.64822e-08 6.36892e-08 6.10511e-08 5.83509e-08 5.62056e-08 5.42022e-08 1.55794e-07 1.6506e-07 
1.75351e-07 1.86169e-07 1.97923e-07 2.10562e-07 2.24084e-07 2.38978e-07 2.52153e-07 2.58209e-07 2.5665e-07 
2.56521e-07 2.62576e-07 2.68489e-07 2.62425e-07 2.46738e-07 2.39354e-07 2.35526e-07 2.31571e-07 2.36807e-07 
2.61897e-07 2.93122e-07 3.21896e-07 3.51678e-07 3.8422e-07 4.12713e-07 4.38806e-07 4.63603e-07 4.85294e-07 
5.00835e-07 5.11244e-07 5.1374e-07 5.08175e-07 4.96151e-07 4.77037e-07 4.54157e-07 4.28805e-07 3.99279e-07 
3.68825e-07 3.385e-07 3.09094e-07 2.80463e-07 2.52483e-07 2.26438e-07 2.04476e-07 1.81215e-07 1.70715e-07 
1.69913e-07 1.72156e-07 1.7494e-07 1.77069e-07 1.80359e-07 1.84831e-07 1.88969e-07 1.87401e-07 1.81549e-07 
1.78912e-07 1.80553e-07 1.79886e-07 1.73982e-07 1.64154e-07 1.54598e-07 1.46219e-07 1.39043e-07 1.32301e-07 
1.25734e-07 1.1896e-07 1.12651e-07 1.06625e-07 1.01272e-07 9.59411e-08 9.10527e-08 8.69262e-08 8.30444e-08 
7.98837e-08 7.64931e-08 7.30301e-08 6.98913e-08 6.68462e-08 6.38039e-08 6.11291e-08 5.86157e-08 5.60932e-08 
5.37057e-08 5.16493e-08 4.97613e-08 1.53426e-07 1.6208e-07 1.7127e-07 1.81595e-07 1.92237e-07 2.0433e-07 
2.13687e-07 2.17145e-07 2.1608e-07 2.15314e-07 2.19525e-07 2.25713e-07 2.25233e-07 2.12845e-07 2.03076e-07 
1.98682e-07 1.94073e-07 1.8859e-07 1.83021e-07 1.85253e-07 2.05858e-07 2.26516e-07 2.46946e-07 2.69702e-07 
2.91219e-07 3.10655e-07 3.29075e-07 3.45419e-07 3.6012e-07 3.70265e-07 3.77941e-07 3.78778e-07 3.75517e-07 
3.67497e-07 3.53738e-07 3.38477e-07 3.22563e-07 3.01806e-07 2.81281e-07 2.59837e-07 2.3748e-07 2.17636e-07 
1.97649e-07 1.78091e-07 1.60502e-07 1.45115e-07 1.35499e-07 1.36614e-07 1.38814e-07 1.41427e-07 1.44598e-07 
1.46678e-07 1.48801e-07 1.51502e-07 1.5459e-07 1.56177e-07 1.52734e-07 1.46195e-07 1.41122e-07 1.39727e-07 
1.39866e-07 1.37238e-07 1.31201e-07 1.23686e-07 1.16867e-07 1.10778e-07 1.05362e-07 1.00329e-07 9.61436e-08 
9.10354e-08 8.63179e-08 8.19431e-08 7.76848e-08 7.41632e-08 7.04709e-08 6.72116e-08 6.42367e-08 6.13448e-08 
5.89606e-08 5.66223e-08 5.43707e-08 5.18698e-08 4.98195e-08 4.78609e-08 4.56619e-08 4.3783e-08 1.63075e-07 
1.75513e-07 1.88458e-07 2.02889e-07 2.18748e-07 2.36622e-07 2.56683e-07 2.79006e-07 3.04096e-07 3.32092e-07 
3.64554e-07 4.00254e-07 4.40288e-07 4.86664e-07 5.40573e-07 6.03579e-07 6.76022e-07 7.58762e-07 8.57948e-07 
9.75891e-07 1.11725e-06 1.28662e-06 1.4935e-06 1.74548e-06 2.0525e-06 2.42067e-06 2.85028e-06 3.3367e-06 
3.8303e-06 4.26443e-06 4.55368e-06 4.62049e-06 4.44307e-06 4.07827e-06 3.60788e-06 3.11163e-06 2.64987e-06 
2.24657e-06 1.90723e-06 1.62596e-06 1.39531e-06 1.2072e-06 1.05319e-06 9.22948e-07 8.14601e-07 7.23872e-07 
6.45589e-07 5.75901e-07 5.16138e-07 4.655e-07 4.22709e-07 3.84843e-07 3.50548e-07 3.19618e-07 2.92334e-07 
2.68885e-07 2.48337e-07 2.2952e-07 2.12833e-07 1.97791e-07 1.84306e-07 1.71673e-07 1.60522e-07 1.50261e-07 
1.40873e-07 1.32739e-07 1.2462e-07 1.17328e-07 1.10674e-07 1.04756e-07 9.92731e-08 9.44283e-08 8.98561e-08 
8.57548e-08 8.1648e-08 7.82066e-08 7.48471e-08 7.17077e-08 6.8748e-08 6.61653e-08 6.35715e-08 6.12956e-08 
5.90232e-08 5.66288e-08 5.45051e-08 5.25291e-08 1.66211e-07 1.7798e-07 1.91339e-07 2.05739e-07 2.21754e-07 
2.39491e-07 2.57896e-07 2.78173e-07 3.00641e-07 3.2611e-07 3.54826e-07 3.8916e-07 4.26899e-07 4.67742e-07 
5.14589e-07 5.69416e-07 6.33729e-07 7.0873e-07 7.94811e-07 8.8561e-07 1.00128e-06 1.14238e-06 1.28069e-06 
1.46674e-06 1.68862e-06 1.9399e-06 2.21823e-06 2.50644e-06 2.7735e-06 2.99997e-06 3.14451e-06 3.17573e-06 
3.09223e-06 2.90779e-06 2.65657e-06 2.3738e-06 2.09199e-06 1.82512e-06 1.58715e-06 1.38156e-06 1.20513e-06 
1.05371e-06 9.24551e-07 8.33292e-07 7.52127e-07 6.70886e-07 6.08791e-07 5.51546e-07 5.00355e-07 4.55806e-07 
4.14534e-07 3.7671e-07 3.44505e-07 3.17333e-07 2.93369e-07 2.72061e-07 2.52083e-07 2.33571e-07 2.16582e-07 
2.01231e-07 1.88181e-07 1.76407e-07 1.66009e-07 1.55787e-07 1.46511e-07 1.38297e-07 1.30443e-07 1.2284e-07 
1.15911e-07 1.09532e-07 1.03923e-07 9.85887e-08 9.37421e-08 8.90865e-08 8.46851e-08 8.04811e-08 7.69071e-08 
7.36809e-08 7.02865e-08 6.7412e-08 6.4574e-08 6.17473e-08 5.94737e-08 5.71831e-08 5.52226e-08 5.30585e-08 
1.69683e-07 1.81703e-07 1.9438e-07 2.0742e-07 2.21499e-07 2.36321e-07 2.53808e-07 2.73687e-07 2.96426e-07 
3.2106e-07 3.4651e-07 3.74697e-07 4.08063e-07 4.47255e-07 4.91692e-07 5.41754e-07 6.004e-07 6.48658e-07 
6.73529e-07 7.1421e-07 7.95145e-07 8.64587e-07 9.76935e-07 1.11276e-06 1.2616e-06 1.42628e-06 1.5948e-06 
1.76356e-06 1.91386e-06 2.03354e-06 2.10974e-06 2.12663e-06 2.08421e-06 1.98421e-06 1.84788e-06 1.68629e-06 
1.51866e-06 1.35079e-06 1.1941e-06 1.05183e-06 9.25667e-07 8.14015e-07 7.18048e-07 6.32943e-07 5.74698e-07 
5.32552e-07 4.93597e-07 4.71046e-07 4.49215e-07 4.15291e-07 3.79079e-07 3.48251e-07 3.2094e-07 2.96151e-07 
2.72132e-07 2.50354e-07 2.31733e-07 2.15687e-07 2.00962e-07 1.88259e-07 1.75489e-07 1.63609e-07 1.52731e-07 
1.43039e-07 1.33916e-07 1.25877e-07 1.18579e-07 1.12008e-07 1.05731e-07 9.9733e-08 9.43676e-08 8.93098e-08 
8.47691e-08 8.03433e-08 7.60249e-08 7.21001e-08 6.83026e-08 6.4752e-08 6.18924e-08 5.91422e-08 5.64753e-08 
5.3919e-08 5.13542e-08 4.90413e-08 4.73595e-08 4.65247e-08 1.67913e-07 1.77572e-07 1.89017e-07 2.02411e-07 