# vtk DataFile Version 2.0
DGS printing
ASCII
DATASET UNSTRUCTURED_GRID
POINTS  144  floats
21.25534 20.90860 20.10441 21.24409 20.90860 20.09584 21.25266 20.90860 20.08459 
21.26391 20.90860 20.09316 21.25534 19.90860 20.10441 21.24409 19.90860 20.09584 
21.25266 19.90860 20.08459 21.26391 19.90860 20.09316 21.24794 20.90860 20.10246 
21.24604 20.90860 20.08844 21.26006 20.90860 20.08654 21.26196 20.90860 20.10056 
21.24794 19.90860 20.10246 21.24604 19.90860 20.08844 21.26006 19.90860 20.08654 
21.26196 19.90860 20.10056 21.25534 20.40860 20.10441 21.24409 20.40860 20.09584 
21.25266 20.40860 20.08459 21.26391 20.40860 20.09316 21.26196 20.40860 20.10056 
21.24604 20.40860 20.08844 21.24794 20.40860 20.10246 21.26006 20.40860 20.08654 
21.27046 21.90860 20.11958 21.22892 21.90860 20.11096 21.23754 21.90860 20.06942 
21.27908 21.90860 20.07804 21.27046 20.90860 20.11958 21.22892 20.90860 20.11096 
21.23754 20.90860 20.06942 21.27908 20.90860 20.07804 21.24790 21.90860 20.12387 
21.22463 21.90860 20.08840 21.26010 21.90860 20.06513 21.28337 21.90860 20.10060 
21.24790 20.90860 20.12387 21.22463 20.90860 20.08840 21.26010 20.90860 20.06513 
21.28337 20.90860 20.10060 21.27046 21.40860 20.11958 21.22892 21.40860 20.11096 
21.23754 21.40860 20.06942 21.27908 21.40860 20.07804 21.28337 21.40860 20.10060 
21.22463 21.40860 20.08840 21.24790 21.40860 20.12387 21.26010 21.40860 20.06513 
21.28270 22.90860 20.13545 21.29495 22.90860 20.06580 21.22530 22.90860 20.05355 
21.21305 22.90860 20.12320 21.28270 23.90860 20.13545 21.29495 23.90860 20.06580 
21.22530 23.90860 20.05355 21.21305 23.90860 20.12320 21.30324 22.90860 20.10316 
21.26266 22.90860 20.04526 21.20476 22.90860 20.08584 21.24534 22.90860 20.14374 
21.30324 23.90860 20.10316 21.26266 23.90860 20.04526 21.20476 23.90860 20.08584 
21.24534 23.90860 20.14374 21.28270 23.40860 20.13545 21.29495 23.40860 20.06580 
21.22530 23.40860 20.05355 21.21305 23.40860 20.12320 21.24534 23.40860 20.14374 
21.26266 23.40860 20.04526 21.30324 23.40860 20.10316 21.20476 23.40860 20.08584 
21.26367 23.90860 20.14356 21.30306 23.90860 20.08483 21.24433 23.90860 20.04544 
21.20494 23.90860 20.10417 21.26367 26.90860 20.14356 21.30306 26.90860 20.08483 
21.24433 26.90860 20.04544 21.20494 26.90860 20.10417 21.29553 23.90860 20.12235 
21.28185 23.90860 20.05297 21.21247 23.90860 20.06665 21.22615 23.90860 20.13603 
21.29553 26.90860 20.12235 21.28185 26.90860 20.05297 21.21247 26.90860 20.06665 
21.22615 26.90860 20.13603 21.26367 25.40860 20.14356 21.30306 25.40860 20.08483 
21.24433 25.40860 20.04544 21.20494 25.40860 20.10417 21.22615 25.40860 20.13603 
21.28185 25.40860 20.05297 21.29553 25.40860 20.12235 21.21247 25.40860 20.06665 
21.26558 27.22820 20.14314 21.30264 27.22820 20.08292 21.24242 27.22820 20.04586 
21.20536 27.22820 20.10608 21.26558 28.22820 20.14314 21.30264 28.22820 20.08292 
21.24242 28.22820 20.04586 21.20536 28.22820 20.10608 21.29658 27.22820 20.12070 
21.28020 27.22820 20.05192 21.21142 27.22820 20.06830 21.22780 27.22820 20.13708 
21.29658 28.22820 20.12070 21.28020 28.22820 20.05192 21.21142 28.22820 20.06830 
21.22780 28.22820 20.13708 21.26558 27.72820 20.14314 21.30264 27.72820 20.08292 
21.24242 27.72820 20.04586 21.20536 27.72820 20.10608 21.22780 27.72820 20.13708 
21.28020 27.72820 20.05192 21.29658 27.72820 20.12070 21.21142 27.72820 20.06830 
21.29945 28.53440 20.11534 21.27484 28.53440 20.04905 21.20855 28.53440 20.07366 
21.23316 28.53440 20.13995 21.29945 29.53440 20.11534 21.27484 29.53440 20.04905 
21.20855 29.53440 20.07366 21.23316 29.53440 20.13995 21.30087 28.53440 20.07710 
21.23660 28.53440 20.04763 21.20713 28.53440 20.11190 21.27140 28.53440 20.14137 
21.30087 29.53440 20.07710 21.23660 29.53440 20.04763 21.20713 29.53440 20.11190 
21.27140 29.53440 20.14137 21.29945 29.03440 20.11534 21.27484 29.03440 20.04905 
21.20855 29.03440 20.07366 21.23316 29.03440 20.13995 21.27140 29.03440 20.14137 
21.23660 29.03440 20.04763 21.30087 29.03440 20.07710 21.20713 29.03440 20.11190 
CELLS  6   150
24 0 1 2 3 4 5 6 7 8 9 10 11 12 13 14 15 16 17 18 19 20 21 22 23
24 24 25 26 27 28 29 30 31 32 33 34 35 36 37 38 39 40 41 42 43 44 45 46 47
24 48 49 50 51 52 53 54 55 56 57 58 59 60 61 62 63 64 65 66 67 68 69 70 71
24 72 73 74 75 76 77 78 79 80 81 82 83 84 85 86 87 88 89 90 91 92 93 94 95
24 96 97 98 99 100 101 102 103 104 105 106 107 108 109 110 111 112 113 114 115 116 117 118 119
24 120 121 122 123 124 125 126 127 128 129 130 131 132 133 134 135 136 137 138 139 140 141 142 143
CELL_TYPES  6 
33
33
33
33
33
33
CELL_DATA  6 
SCALARS node_id int 1 
LOOKUP_TABLE default
1
2
4
5
6
7
SCALARS average_vol_activity_bq_m3 double 1 
LOOKUP_TABLE default
9.84970e+01
8.48824e+01
3.44998e+01
9.08140e+00
1.65591e+00
7.75071e-01
SCALARS total_activity_bq double 1 
LOOKUP_TABLE default
3.09437e-02
2.39999e-01
2.70960e-01
2.13975e-01
1.30055e-02
6.08739e-03
SCALARS mc_error double 1 
LOOKUP_TABLE default
0.00000
0.00000
0.00000
0.00000
0.00000
0.00000
