# vtk DataFile Version 2.0
DGS printing
ASCII
DATASET UNSTRUCTURED_GRID
POINTS  144  floats
21.26289 20.90860 20.09908 21.24942 20.90860 20.10339 21.24511 20.90860 20.08992 
21.25858 20.90860 20.08561 21.26289 19.90860 20.09908 21.24942 19.90860 20.10339 
21.24511 19.90860 20.08992 21.25858 19.90860 20.08561 21.25705 20.90860 20.10402 
21.24448 20.90860 20.09755 21.25095 20.90860 20.08498 21.26352 20.90860 20.09145 
21.25705 19.90860 20.10402 21.24448 19.90860 20.09755 21.25095 19.90860 20.08498 
21.26352 19.90860 20.09145 21.26289 20.40860 20.09908 21.24942 20.40860 20.10339 
21.24511 20.40860 20.08992 21.25858 20.40860 20.08561 21.26352 20.40860 20.09145 
21.24448 20.40860 20.09755 21.25705 20.40860 20.10402 21.25095 20.40860 20.08498 
21.28055 21.90860 20.10846 21.24004 21.90860 20.12105 21.22745 21.90860 20.08054 
21.26796 21.90860 20.06795 21.28055 20.90860 20.10846 21.24004 20.90860 20.12105 
21.22745 20.90860 20.08054 21.26796 20.90860 20.06795 21.26290 21.90860 20.12315 
21.22535 21.90860 20.10340 21.24510 21.90860 20.06585 21.28265 21.90860 20.08560 
21.26290 20.90860 20.12315 21.22535 20.90860 20.10340 21.24510 20.90860 20.06585 
21.28265 20.90860 20.08560 21.28055 21.40860 20.10846 21.24004 21.40860 20.12105 
21.22745 21.40860 20.08054 21.26796 21.40860 20.06795 21.28265 21.40860 20.08560 
21.22535 21.40860 20.10340 21.26290 21.40860 20.12315 21.24510 21.40860 20.06585 
21.29849 22.90860 20.11731 21.27681 22.90860 20.05001 21.20951 22.90860 20.07169 
21.23119 22.90860 20.13899 21.29849 23.90860 20.11731 21.27681 23.90860 20.05001 
21.20951 23.90860 20.07169 21.23119 23.90860 20.13899 21.30159 22.90860 20.07917 
21.23867 22.90860 20.04691 21.20641 22.90860 20.10983 21.26933 22.90860 20.14209 
21.30159 23.90860 20.07917 21.23867 23.90860 20.04691 21.20641 23.90860 20.10983 
21.26933 23.90860 20.14209 21.29849 23.40860 20.11731 21.27681 23.40860 20.05001 
21.20951 23.40860 20.07169 21.23119 23.40860 20.13899 21.26933 23.40860 20.14209 
21.23867 23.40860 20.04691 21.30159 23.40860 20.07917 21.20641 23.40860 20.10983 
21.28047 23.90860 20.13692 21.29642 23.90860 20.06803 21.22753 23.90860 20.05208 
21.21158 23.90860 20.12097 21.28047 26.90860 20.13692 21.29642 26.90860 20.06803 
21.22753 26.90860 20.05208 21.21158 26.90860 20.12097 21.30271 23.90860 20.10578 
21.26528 23.90860 20.04579 21.20529 23.90860 20.08322 21.24272 23.90860 20.14321 
21.30271 26.90860 20.10578 21.26528 26.90860 20.04579 21.20529 26.90860 20.08322 
21.24272 26.90860 20.14321 21.28047 25.40860 20.13692 21.29642 25.40860 20.06803 
21.22753 25.40860 20.05208 21.21158 25.40860 20.12097 21.24272 25.40860 20.14321 
21.26528 25.40860 20.04579 21.30271 25.40860 20.10578 21.20529 25.40860 20.08322 
21.30121 27.22820 20.11098 21.27048 27.22820 20.04729 21.20679 27.22820 20.07802 
21.23752 27.22820 20.14171 21.30121 28.22820 20.11098 21.27048 28.22820 20.04729 
21.20679 28.22820 20.07802 21.23752 28.22820 20.14171 21.29903 27.22820 20.07277 
21.23227 27.22820 20.04947 21.20897 27.22820 20.11623 21.27573 27.22820 20.13953 
21.29903 28.22820 20.07277 21.23227 28.22820 20.04947 21.20897 28.22820 20.11623 
21.27573 28.22820 20.13953 21.30121 27.72820 20.11098 21.27048 27.72820 20.04729 
21.20679 27.72820 20.07802 21.23752 27.72820 20.14171 21.27573 27.72820 20.13953 
21.23227 27.72820 20.04947 21.29903 27.72820 20.07277 21.20897 27.72820 20.11623 
21.29791 28.53440 20.11842 21.27792 28.53440 20.05059 21.21009 28.53440 20.07058 
21.23008 28.53440 20.13841 21.29791 29.53440 20.11842 21.27792 29.53440 20.05059 
21.21009 29.53440 20.07058 21.23008 29.53440 20.13841 21.30196 28.53440 20.08037 
21.23987 28.53440 20.04654 21.20604 28.53440 20.10863 21.26813 28.53440 20.14246 
21.30196 29.53440 20.08037 21.23987 29.53440 20.04654 21.20604 29.53440 20.10863 
21.26813 29.53440 20.14246 21.29791 29.03440 20.11842 21.27792 29.03440 20.05059 
21.21009 29.03440 20.07058 21.23008 29.03440 20.13841 21.26813 29.03440 20.14246 
21.23987 29.03440 20.04654 21.30196 29.03440 20.08037 21.20604 29.03440 20.10863 
CELLS  6   150
24 0 1 2 3 4 5 6 7 8 9 10 11 12 13 14 15 16 17 18 19 20 21 22 23
24 24 25 26 27 28 29 30 31 32 33 34 35 36 37 38 39 40 41 42 43 44 45 46 47
24 48 49 50 51 52 53 54 55 56 57 58 59 60 61 62 63 64 65 66 67 68 69 70 71
24 72 73 74 75 76 77 78 79 80 81 82 83 84 85 86 87 88 89 90 91 92 93 94 95
24 96 97 98 99 100 101 102 103 104 105 106 107 108 109 110 111 112 113 114 115 116 117 118 119
24 120 121 122 123 124 125 126 127 128 129 130 131 132 133 134 135 136 137 138 139 140 141 142 143
CELL_TYPES  6 
33
33
33
33
33
33
CELL_DATA  6 
SCALARS node_id int 1 
LOOKUP_TABLE default
1
2
4
5
6
7
SCALARS average_vol_activity_bq_m3 double 1 
LOOKUP_TABLE default
9.84970e+01
8.48824e+01
3.44998e+01
9.08140e+00
1.65591e+00
7.75071e-01
SCALARS total_activity_bq double 1 
LOOKUP_TABLE default
3.09437e-02
2.39999e-01
2.70960e-01
2.13975e-01
1.30055e-02
6.08739e-03
SCALARS mc_error double 1 
LOOKUP_TABLE default
0.00000
0.00000
0.00000
0.00000
0.00000
0.00000
