# vtk DataFile Version 2.0
DGS printing
ASCII
DATASET UNSTRUCTURED_GRID
POINTS  144  floats
21.25501 20.90860 20.10445 21.24405 20.90860 20.09551 21.25299 20.90860 20.08455 
21.26395 20.90860 20.09349 21.25501 19.90860 20.10445 21.24405 19.90860 20.09551 
21.25299 19.90860 20.08455 21.26395 19.90860 20.09349 21.24768 20.90860 20.10225 
21.24625 20.90860 20.08818 21.26032 20.90860 20.08675 21.26175 20.90860 20.10082 
21.24768 19.90860 20.10225 21.24625 19.90860 20.08818 21.26032 19.90860 20.08675 
21.26175 19.90860 20.10082 21.25501 20.40860 20.10445 21.24405 20.40860 20.09551 
21.25299 20.40860 20.08455 21.26395 20.40860 20.09349 21.26175 20.40860 20.10082 
21.24625 20.40860 20.08818 21.24768 20.40860 20.10225 21.26032 20.40860 20.08675 
21.27626 21.90860 20.11461 21.23389 21.90860 20.11676 21.23174 21.90860 20.07439 
21.27411 21.90860 20.07224 21.27626 20.90860 20.11461 21.23389 20.90860 20.11676 
21.23174 20.90860 20.07439 21.27411 20.90860 20.07224 21.25552 21.90860 20.12446 
21.22404 21.90860 20.09602 21.25248 21.90860 20.06454 21.28396 21.90860 20.09298 
21.25552 20.90860 20.12446 21.22404 20.90860 20.09602 21.25248 20.90860 20.06454 
21.28396 20.90860 20.09298 21.27626 21.40860 20.11461 21.23389 21.40860 20.11676 
21.23174 21.40860 20.07439 21.27411 21.40860 20.07224 21.28396 21.40860 20.09298 
21.22404 21.40860 20.09602 21.25552 21.40860 20.12446 21.25248 21.40860 20.06454 
21.30004 22.90860 20.11400 21.27350 22.90860 20.04846 21.20796 22.90860 20.07500 
21.23450 22.90860 20.14054 21.30004 23.90860 20.11400 21.27350 23.90860 20.04846 
21.20796 23.90860 20.07500 21.23450 23.90860 20.14054 21.30034 22.90860 20.07573 
21.23523 22.90860 20.04816 21.20766 22.90860 20.11327 21.27277 22.90860 20.14084 
21.30034 23.90860 20.07573 21.23523 23.90860 20.04816 21.20766 23.90860 20.11327 
21.27277 23.90860 20.14084 21.30004 23.40860 20.11400 21.27350 23.40860 20.04846 
21.20796 23.40860 20.07500 21.23450 23.40860 20.14054 21.27277 23.40860 20.14084 
21.23523 23.40860 20.04816 21.30034 23.40860 20.07573 21.20766 23.40860 20.11327 
21.26034 23.90860 20.14410 21.30360 23.90860 20.08816 21.24766 23.90860 20.04490 
21.20440 23.90860 20.10084 21.26034 26.90860 20.14410 21.30360 26.90860 20.08816 
21.24766 26.90860 20.04490 21.20440 26.90860 20.10084 21.29355 23.90860 20.12509 
21.28459 23.90860 20.05495 21.21445 23.90860 20.06391 21.22341 23.90860 20.13405 
21.29355 26.90860 20.12509 21.28459 26.90860 20.05495 21.21445 26.90860 20.06391 
21.22341 26.90860 20.13405 21.26034 25.40860 20.14410 21.30360 25.40860 20.08816 
21.24766 25.40860 20.04490 21.20440 25.40860 20.10084 21.22341 25.40860 20.13405 
21.28459 25.40860 20.05495 21.29355 25.40860 20.12509 21.21445 25.40860 20.06391 
21.28488 27.22820 20.13383 21.29333 27.22820 20.06362 21.22312 27.22820 20.05517 
21.21467 27.22820 20.12538 21.28488 28.22820 20.13383 21.29333 28.22820 20.06362 
21.22312 28.22820 20.05517 21.21467 28.22820 20.12538 21.30364 27.22820 20.10047 
21.25997 27.22820 20.04486 21.20436 27.22820 20.08853 21.24803 27.22820 20.14414 
21.30364 28.22820 20.10047 21.25997 28.22820 20.04486 21.20436 28.22820 20.08853 
21.24803 28.22820 20.14414 21.28488 27.72820 20.13383 21.29333 27.72820 20.06362 
21.22312 27.72820 20.05517 21.21467 27.72820 20.12538 21.24803 27.72820 20.14414 
21.25997 27.72820 20.04486 21.30364 27.72820 20.10047 21.20436 27.72820 20.08853 
21.26679 28.53440 20.14284 21.30234 28.53440 20.08171 21.24121 28.53440 20.04616 
21.20566 28.53440 20.10729 21.26679 29.53440 20.14284 21.30234 29.53440 20.08171 
21.24121 29.53440 20.04616 21.20566 29.53440 20.10729 21.29722 28.53440 20.11964 
21.27914 28.53440 20.05128 21.21078 28.53440 20.06936 21.22886 28.53440 20.13772 
21.29722 29.53440 20.11964 21.27914 29.53440 20.05128 21.21078 29.53440 20.06936 
21.22886 29.53440 20.13772 21.26679 29.03440 20.14284 21.30234 29.03440 20.08171 
21.24121 29.03440 20.04616 21.20566 29.03440 20.10729 21.22886 29.03440 20.13772 
21.27914 29.03440 20.05128 21.29722 29.03440 20.11964 21.21078 29.03440 20.06936 
CELLS  6   150
24 0 1 2 3 4 5 6 7 8 9 10 11 12 13 14 15 16 17 18 19 20 21 22 23
24 24 25 26 27 28 29 30 31 32 33 34 35 36 37 38 39 40 41 42 43 44 45 46 47
24 48 49 50 51 52 53 54 55 56 57 58 59 60 61 62 63 64 65 66 67 68 69 70 71
24 72 73 74 75 76 77 78 79 80 81 82 83 84 85 86 87 88 89 90 91 92 93 94 95
24 96 97 98 99 100 101 102 103 104 105 106 107 108 109 110 111 112 113 114 115 116 117 118 119
24 120 121 122 123 124 125 126 127 128 129 130 131 132 133 134 135 136 137 138 139 140 141 142 143
CELL_TYPES  6 
33
33
33
33
33
33
CELL_DATA  6 
SCALARS node_id int 1 
LOOKUP_TABLE default
1
2
4
5
6
7
SCALARS average_vol_activity_bq_m3 double 1 
LOOKUP_TABLE default
9.84970e+01
8.48824e+01
4.30334e+01
1.13277e+01
2.06551e+00
9.66788e-01
SCALARS total_activity_bq double 1 
LOOKUP_TABLE default
3.09437e-02
2.39999e-01
3.37983e-01
2.66903e-01
1.62224e-02
7.59313e-03
SCALARS mc_error double 1 
LOOKUP_TABLE default
0.00000
0.00000
0.00039
0.00039
0.00039
0.00039
