# vtk DataFile Version 2.0
DGS printing
ASCII
DATASET UNSTRUCTURED_GRID
POINTS  144  floats
21.26070 20.90860 20.10192 21.24658 20.90860 20.10120 21.24730 20.90860 20.08708 
21.26142 20.90860 20.08780 21.26070 19.90860 20.10192 21.24658 19.90860 20.10120 
21.24730 19.90860 20.08708 21.26142 19.90860 20.08780 21.25349 20.90860 20.10449 
21.24401 20.90860 20.09399 21.25451 20.90860 20.08451 21.26399 20.90860 20.09501 
21.25349 19.90860 20.10449 21.24401 19.90860 20.09399 21.25451 19.90860 20.08451 
21.26399 19.90860 20.09501 21.26070 20.40860 20.10192 21.24658 20.40860 20.10120 
21.24730 20.40860 20.08708 21.26142 20.40860 20.08780 21.26399 20.40860 20.09501 
21.24401 20.40860 20.09399 21.25349 20.40860 20.10449 21.25451 20.40860 20.08451 
21.25505 21.90860 20.12448 21.22402 21.90860 20.09555 21.25295 21.90860 20.06452 
21.28398 21.90860 20.09345 21.25505 20.90860 20.12448 21.22402 20.90860 20.09555 
21.25295 20.90860 20.06452 21.28398 20.90860 20.09345 21.23354 21.90860 20.11644 
21.23206 21.90860 20.07404 21.27446 21.90860 20.07256 21.27594 21.90860 20.11496 
21.23354 20.90860 20.11644 21.23206 20.90860 20.07404 21.27446 20.90860 20.07256 
21.27594 20.90860 20.11496 21.25505 21.40860 20.12448 21.22402 21.40860 20.09555 
21.25295 21.40860 20.06452 21.28398 21.40860 20.09345 21.27594 21.40860 20.11496 
21.23206 21.40860 20.07404 21.23354 21.40860 20.11644 21.27446 21.40860 20.07256 
21.28073 22.90860 20.13676 21.29626 22.90860 20.06777 21.22727 22.90860 20.05224 
21.21174 22.90860 20.12123 21.28073 23.90860 20.13676 21.29626 23.90860 20.06777 
21.22727 23.90860 20.05224 21.21174 23.90860 20.12123 21.30278 22.90860 20.10548 
21.26498 22.90860 20.04572 21.20522 22.90860 20.08352 21.24302 22.90860 20.14328 
21.30278 23.90860 20.10548 21.26498 23.90860 20.04572 21.20522 23.90860 20.08352 
21.24302 23.90860 20.14328 21.28073 23.40860 20.13676 21.29626 23.40860 20.06777 
21.22727 23.40860 20.05224 21.21174 23.40860 20.12123 21.24302 23.40860 20.14328 
21.26498 23.40860 20.04572 21.30278 23.40860 20.10548 21.20522 23.40860 20.08352 
21.30056 23.90860 20.11272 21.27222 23.90860 20.04794 21.20744 23.90860 20.07628 
21.23578 23.90860 20.14106 21.30056 26.90860 20.11272 21.27222 26.90860 20.04794 
21.20744 26.90860 20.07628 21.23578 26.90860 20.14106 21.29981 23.90860 20.07446 
21.23396 23.90860 20.04869 21.20819 23.90860 20.11454 21.27404 23.90860 20.14031 
21.29981 26.90860 20.07446 21.23396 26.90860 20.04869 21.20819 26.90860 20.11454 
21.27404 26.90860 20.14031 21.30056 25.40860 20.11272 21.27222 25.40860 20.04794 
21.20744 25.40860 20.07628 21.23578 25.40860 20.14106 21.27404 25.40860 20.14031 
21.23396 25.40860 20.04869 21.29981 25.40860 20.07446 21.20819 25.40860 20.11454 
21.25825 27.22820 20.14432 21.30382 27.22820 20.09025 21.24975 27.22820 20.04468 
21.20418 27.22820 20.09875 21.25825 28.22820 20.14432 21.30382 28.22820 20.09025 
21.24975 28.22820 20.04468 21.20418 28.22820 20.09875 21.29223 27.22820 20.12672 
21.28622 27.22820 20.05627 21.21577 27.22820 20.06228 21.22178 27.22820 20.13273 
21.29223 28.22820 20.12672 21.28622 28.22820 20.05627 21.21577 28.22820 20.06228 
21.22178 28.22820 20.13273 21.25825 27.72820 20.14432 21.30382 27.72820 20.09025 
21.24975 27.72820 20.04468 21.20418 27.72820 20.09875 21.22178 27.72820 20.13273 
21.28622 27.72820 20.05627 21.29223 27.72820 20.12672 21.21577 27.72820 20.06228 
21.28762 28.53440 20.13151 21.29101 28.53440 20.06088 21.22038 28.53440 20.05749 
21.21699 28.53440 20.12812 21.28762 29.53440 20.13151 21.29101 29.53440 20.06088 
21.22038 29.53440 20.05749 21.21699 29.53440 20.12812 21.30394 28.53440 20.09689 
21.25639 28.53440 20.04456 21.20406 28.53440 20.09211 21.25161 28.53440 20.14444 
21.30394 29.53440 20.09689 21.25639 29.53440 20.04456 21.20406 29.53440 20.09211 
21.25161 29.53440 20.14444 21.28762 29.03440 20.13151 21.29101 29.03440 20.06088 
21.22038 29.03440 20.05749 21.21699 29.03440 20.12812 21.25161 29.03440 20.14444 
21.25639 29.03440 20.04456 21.30394 29.03440 20.09689 21.20406 29.03440 20.09211 
CELLS  6   150
24 0 1 2 3 4 5 6 7 8 9 10 11 12 13 14 15 16 17 18 19 20 21 22 23
24 24 25 26 27 28 29 30 31 32 33 34 35 36 37 38 39 40 41 42 43 44 45 46 47
24 48 49 50 51 52 53 54 55 56 57 58 59 60 61 62 63 64 65 66 67 68 69 70 71
24 72 73 74 75 76 77 78 79 80 81 82 83 84 85 86 87 88 89 90 91 92 93 94 95
24 96 97 98 99 100 101 102 103 104 105 106 107 108 109 110 111 112 113 114 115 116 117 118 119
24 120 121 122 123 124 125 126 127 128 129 130 131 132 133 134 135 136 137 138 139 140 141 142 143
CELL_TYPES  6 
33
33
33
33
33
33
CELL_DATA  6 
SCALARS node_id int 1 
LOOKUP_TABLE default
1
2
4
5
6
7
SCALARS average_vol_activity_bq_m3 double 1 
LOOKUP_TABLE default
9.84970e+01
8.48824e+01
3.11049e+01
0.00000e+00
0.00000e+00
0.00000e+00
SCALARS total_activity_bq double 1 
LOOKUP_TABLE default
3.09437e-02
2.39999e-01
2.44298e-01
0.00000e+00
0.00000e+00
0.00000e+00
SCALARS mc_error double 1 
LOOKUP_TABLE default
0.00000
0.00000
0.00102
0.00000
0.00000
0.00000
