# vtk DataFile Version 2.0
DGS printing
ASCII
DATASET UNSTRUCTURED_GRID
POINTS  144  floats
21.26049 20.90860 20.10210 21.24640 20.90860 20.10099 21.24751 20.90860 20.08690 
21.26160 20.90860 20.08801 21.26049 19.90860 20.10210 21.24640 19.90860 20.10099 
21.24751 19.90860 20.08690 21.26160 19.90860 20.08801 21.25322 20.90860 20.10447 
21.24403 20.90860 20.09372 21.25478 20.90860 20.08453 21.26397 20.90860 20.09528 
21.25322 19.90860 20.10447 21.24403 19.90860 20.09372 21.25478 19.90860 20.08453 
21.26397 19.90860 20.09528 21.26049 20.40860 20.10210 21.24640 20.40860 20.10099 
21.24751 20.40860 20.08690 21.26160 20.40860 20.08801 21.26397 20.40860 20.09528 
21.24403 20.40860 20.09372 21.25322 20.40860 20.10447 21.25478 20.40860 20.08453 
21.25499 21.90860 20.12448 21.22402 21.90860 20.09549 21.25301 21.90860 20.06452 
21.28398 21.90860 20.09351 21.25499 20.90860 20.12448 21.22402 20.90860 20.09549 
21.25301 20.90860 20.06452 21.28398 20.90860 20.09351 21.23350 21.90860 20.11640 
21.23210 21.90860 20.07400 21.27450 21.90860 20.07260 21.27590 21.90860 20.11500 
21.23350 20.90860 20.11640 21.23210 20.90860 20.07400 21.27450 20.90860 20.07260 
21.27590 20.90860 20.11500 21.25499 21.40860 20.12448 21.22402 21.40860 20.09549 
21.25301 21.40860 20.06452 21.28398 21.40860 20.09351 21.27590 21.40860 20.11500 
21.23210 21.40860 20.07400 21.23350 21.40860 20.11640 21.27450 21.40860 20.07260 
21.28765 22.90860 20.13148 21.29098 22.90860 20.06085 21.22035 22.90860 20.05752 
21.21702 22.90860 20.12815 21.28765 23.90860 20.13148 21.29098 23.90860 20.06085 
21.22035 23.90860 20.05752 21.21702 23.90860 20.12815 21.30394 22.90860 20.09685 
21.25635 22.90860 20.04456 21.20406 22.90860 20.09215 21.25165 22.90860 20.14444 
21.30394 23.90860 20.09685 21.25635 23.90860 20.04456 21.20406 23.90860 20.09215 
21.25165 23.90860 20.14444 21.28765 23.40860 20.13148 21.29098 23.40860 20.06085 
21.22035 23.40860 20.05752 21.21702 23.40860 20.12815 21.25165 23.40860 20.14444 
21.25635 23.40860 20.04456 21.30394 23.40860 20.09685 21.20406 23.40860 20.09215 
21.29162 23.90860 20.12744 21.28694 23.90860 20.05688 21.21638 23.90860 20.06156 
21.22106 23.90860 20.13212 21.29162 26.90860 20.12744 21.28694 26.90860 20.05688 
21.21638 26.90860 20.06156 21.22106 26.90860 20.13212 21.30389 23.90860 20.09119 
21.25069 23.90860 20.04461 21.20411 23.90860 20.09781 21.25731 23.90860 20.14439 
21.30389 26.90860 20.09119 21.25069 26.90860 20.04461 21.20411 26.90860 20.09781 
21.25731 26.90860 20.14439 21.29162 25.40860 20.12744 21.28694 25.40860 20.05688 
21.21638 25.40860 20.06156 21.22106 25.40860 20.13212 21.25731 25.40860 20.14439 
21.25069 25.40860 20.04461 21.30389 25.40860 20.09119 21.20411 25.40860 20.09781 
21.28421 27.22820 20.13434 21.29384 27.22820 20.06429 21.22379 27.22820 20.05466 
21.21416 27.22820 20.12471 21.28421 28.22820 20.13434 21.29384 28.22820 20.06429 
21.22379 28.22820 20.05466 21.21416 28.22820 20.12471 21.30353 27.22820 20.10132 
21.26082 27.22820 20.04497 21.20447 27.22820 20.08768 21.24718 27.22820 20.14403 
21.30353 28.22820 20.10132 21.26082 28.22820 20.04497 21.20447 28.22820 20.08768 
21.24718 28.22820 20.14403 21.28421 27.72820 20.13434 21.29384 27.72820 20.06429 
21.22379 27.72820 20.05466 21.21416 27.72820 20.12471 21.24718 27.72820 20.14403 
21.26082 27.72820 20.04497 21.30353 27.72820 20.10132 21.20447 27.72820 20.08768 
21.30288 28.53440 20.10503 21.26453 28.53440 20.04562 21.20512 28.53440 20.08397 
21.24347 28.53440 20.14338 21.30288 29.53440 20.10503 21.26453 29.53440 20.04562 
21.20512 29.53440 20.08397 21.24347 29.53440 20.14338 21.29601 28.53440 20.06739 
21.22689 28.53440 20.05249 21.21199 28.53440 20.12161 21.28111 28.53440 20.13651 
21.29601 29.53440 20.06739 21.22689 29.53440 20.05249 21.21199 29.53440 20.12161 
21.28111 29.53440 20.13651 21.30288 29.03440 20.10503 21.26453 29.03440 20.04562 
21.20512 29.03440 20.08397 21.24347 29.03440 20.14338 21.28111 29.03440 20.13651 
21.22689 29.03440 20.05249 21.29601 29.03440 20.06739 21.21199 29.03440 20.12161 
CELLS  6   150
24 0 1 2 3 4 5 6 7 8 9 10 11 12 13 14 15 16 17 18 19 20 21 22 23
24 24 25 26 27 28 29 30 31 32 33 34 35 36 37 38 39 40 41 42 43 44 45 46 47
24 48 49 50 51 52 53 54 55 56 57 58 59 60 61 62 63 64 65 66 67 68 69 70 71
24 72 73 74 75 76 77 78 79 80 81 82 83 84 85 86 87 88 89 90 91 92 93 94 95
24 96 97 98 99 100 101 102 103 104 105 106 107 108 109 110 111 112 113 114 115 116 117 118 119
24 120 121 122 123 124 125 126 127 128 129 130 131 132 133 134 135 136 137 138 139 140 141 142 143
CELL_TYPES  6 
33
33
33
33
33
33
CELL_DATA  6 
SCALARS node_id int 1 
LOOKUP_TABLE default
1
2
4
5
6
7
SCALARS average_vol_activity_bq_m3 double 1 
LOOKUP_TABLE default
9.84970e+01
8.48824e+01
4.30477e+01
1.13315e+01
2.06619e+00
9.67109e-01
SCALARS total_activity_bq double 1 
LOOKUP_TABLE default
3.09437e-02
2.39999e-01
3.38096e-01
2.66991e-01
1.62278e-02
7.59566e-03
SCALARS mc_error double 1 
LOOKUP_TABLE default
0.00000
0.00000
0.00039
0.00039
0.00039
0.00039
