# vtk DataFile Version 2.0
DGS printing
ASCII
DATASET UNSTRUCTURED_GRID
POINTS  144  floats
21.26398 20.90860 20.09514 21.25336 20.90860 20.10448 21.24402 20.90860 20.09386 
21.25464 20.90860 20.08452 21.26398 19.90860 20.09514 21.25336 19.90860 20.10448 
21.24402 19.90860 20.09386 21.25464 19.90860 20.08452 21.26061 20.90860 20.10201 
21.24649 20.90860 20.10111 21.24739 20.90860 20.08699 21.26151 20.90860 20.08789 
21.26061 19.90860 20.10201 21.24649 19.90860 20.10111 21.24739 19.90860 20.08699 
21.26151 19.90860 20.08789 21.26398 20.40860 20.09514 21.25336 20.40860 20.10448 
21.24402 20.40860 20.09386 21.25464 20.40860 20.08452 21.26151 20.40860 20.08789 
21.24649 20.40860 20.10111 21.26061 20.40860 20.10201 21.24739 20.40860 20.08699 
21.28384 21.90860 20.09759 21.25091 21.90860 20.12434 21.22416 21.90860 20.09141 
21.25709 21.90860 20.06466 21.28384 20.90860 20.09759 21.25091 20.90860 20.12434 
21.22416 20.90860 20.09141 21.25709 20.90860 20.06466 21.27291 21.90860 20.11779 
21.23071 21.90860 20.11341 21.23509 21.90860 20.07121 21.27729 21.90860 20.07559 
21.27291 20.90860 20.11779 21.23071 20.90860 20.11341 21.23509 20.90860 20.07121 
21.27729 20.90860 20.07559 21.28384 21.40860 20.09759 21.25091 21.40860 20.12434 
21.22416 21.40860 20.09141 21.25709 21.40860 20.06466 21.27729 21.40860 20.07559 
21.23071 21.40860 20.11341 21.27291 21.40860 20.11779 21.23509 21.40860 20.07121 
21.29788 22.90860 20.11847 21.27797 22.90860 20.05062 21.21012 22.90860 20.07053 
21.23003 22.90860 20.13838 21.29788 23.90860 20.11847 21.27797 23.90860 20.05062 
21.21012 23.90860 20.07053 21.23003 23.90860 20.13838 21.30198 22.90860 20.08042 
21.23992 22.90860 20.04652 21.20602 22.90860 20.10858 21.26808 22.90860 20.14248 
21.30198 23.90860 20.08042 21.23992 23.90860 20.04652 21.20602 23.90860 20.10858 
21.26808 23.90860 20.14248 21.29788 23.40860 20.11847 21.27797 23.40860 20.05062 
21.21012 23.40860 20.07053 21.23003 23.40860 20.13838 21.26808 23.40860 20.14248 
21.23992 23.40860 20.04652 21.30198 23.40860 20.08042 21.20602 23.40860 20.10858 
21.26400 23.90860 20.14349 21.30299 23.90860 20.08450 21.24400 23.90860 20.04551 
21.20501 23.90860 20.10450 21.26400 26.90860 20.14349 21.30299 26.90860 20.08450 
21.24400 26.90860 20.04551 21.20501 26.90860 20.10450 21.29571 23.90860 20.12207 
21.28157 23.90860 20.05279 21.21229 23.90860 20.06693 21.22643 23.90860 20.13621 
21.29571 26.90860 20.12207 21.28157 26.90860 20.05279 21.21229 26.90860 20.06693 
21.22643 26.90860 20.13621 21.26400 25.40860 20.14349 21.30299 25.40860 20.08450 
21.24400 25.40860 20.04551 21.20501 25.40860 20.10450 21.22643 25.40860 20.13621 
21.28157 25.40860 20.05279 21.29571 25.40860 20.12207 21.21229 25.40860 20.06693 
21.28941 27.22820 20.12980 21.28930 27.22820 20.05909 21.21859 27.22820 20.05920 
21.21870 27.22820 20.12991 21.28941 28.22820 20.12980 21.28930 28.22820 20.05909 
21.21859 28.22820 20.05920 21.21870 28.22820 20.12991 21.30400 27.22820 20.09442 
21.25392 27.22820 20.04450 21.20400 27.22820 20.09458 21.25408 27.22820 20.14450 
21.30400 28.22820 20.09442 21.25392 28.22820 20.04450 21.20400 28.22820 20.09458 
21.25408 28.22820 20.14450 21.28941 27.72820 20.12980 21.28930 27.72820 20.05909 
21.21859 27.72820 20.05920 21.21870 27.72820 20.12991 21.25408 27.72820 20.14450 
21.25392 27.72820 20.04450 21.30400 27.72820 20.09442 21.20400 27.72820 20.09458 
21.29856 28.53440 20.11718 21.27668 28.53440 20.04994 21.20944 28.53440 20.07182 
21.23132 28.53440 20.13906 21.29856 29.53440 20.11718 21.27668 29.53440 20.04994 
21.20944 29.53440 20.07182 21.23132 29.53440 20.13906 21.30155 28.53440 20.07903 
21.23853 28.53440 20.04695 21.20645 28.53440 20.10997 21.26947 28.53440 20.14205 
21.30155 29.53440 20.07903 21.23853 29.53440 20.04695 21.20645 29.53440 20.10997 
21.26947 29.53440 20.14205 21.29856 29.03440 20.11718 21.27668 29.03440 20.04994 
21.20944 29.03440 20.07182 21.23132 29.03440 20.13906 21.26947 29.03440 20.14205 
21.23853 29.03440 20.04695 21.30155 29.03440 20.07903 21.20645 29.03440 20.10997 
CELLS  6   150
24 0 1 2 3 4 5 6 7 8 9 10 11 12 13 14 15 16 17 18 19 20 21 22 23
24 24 25 26 27 28 29 30 31 32 33 34 35 36 37 38 39 40 41 42 43 44 45 46 47
24 48 49 50 51 52 53 54 55 56 57 58 59 60 61 62 63 64 65 66 67 68 69 70 71
24 72 73 74 75 76 77 78 79 80 81 82 83 84 85 86 87 88 89 90 91 92 93 94 95
24 96 97 98 99 100 101 102 103 104 105 106 107 108 109 110 111 112 113 114 115 116 117 118 119
24 120 121 122 123 124 125 126 127 128 129 130 131 132 133 134 135 136 137 138 139 140 141 142 143
CELL_TYPES  6 
33
33
33
33
33
33
CELL_DATA  6 
SCALARS node_id int 1 
LOOKUP_TABLE default
1
2
4
5
6
7
SCALARS average_vol_activity_bq_m3 double 1 
LOOKUP_TABLE default
9.84970e+01
8.48824e+01
4.30346e+01
1.13280e+01
2.06556e+00
9.66815e-01
SCALARS total_activity_bq double 1 
LOOKUP_TABLE default
3.09437e-02
2.39999e-01
3.37993e-01
2.66910e-01
1.62229e-02
7.59335e-03
SCALARS mc_error double 1 
LOOKUP_TABLE default
0.00000
0.00000
0.00000
0.00000
0.00000
0.00000
