# vtk DataFile Version 2.0
DGS printing
ASCII
DATASET UNSTRUCTURED_GRID
POINTS  144  floats
21.25429 20.90860 20.10450 21.24400 20.90860 20.09479 21.25371 20.90860 20.08450 
21.26400 20.90860 20.09421 21.25429 19.90860 20.10450 21.24400 19.90860 20.09479 
21.25371 19.90860 20.08450 21.26400 19.90860 20.09421 21.24714 20.90860 20.10177 
21.24673 20.90860 20.08764 21.26086 20.90860 20.08723 21.26127 20.90860 20.10136 
21.24714 19.90860 20.10177 21.24673 19.90860 20.08764 21.26086 19.90860 20.08723 
21.26127 19.90860 20.10136 21.25429 20.40860 20.10450 21.24400 20.40860 20.09479 
21.25371 20.40860 20.08450 21.26400 20.40860 20.09421 21.26127 20.40860 20.10136 
21.24673 20.40860 20.08764 21.24714 20.40860 20.10177 21.26086 20.40860 20.08723 
21.27642 21.90860 20.11443 21.23407 21.90860 20.11692 21.23158 21.90860 20.07457 
21.27393 21.90860 20.07208 21.27642 20.90860 20.11443 21.23407 20.90860 20.11692 
21.23158 20.90860 20.07457 21.27393 20.90860 20.07208 21.25576 21.90860 20.12445 
21.22405 21.90860 20.09626 21.25224 21.90860 20.06455 21.28395 21.90860 20.09274 
21.25576 20.90860 20.12445 21.22405 20.90860 20.09626 21.25224 20.90860 20.06455 
21.28395 20.90860 20.09274 21.27642 21.40860 20.11443 21.23407 21.40860 20.11692 
21.23158 21.40860 20.07457 21.27393 21.40860 20.07208 21.28395 21.40860 20.09274 
21.22405 21.40860 20.09626 21.25576 21.40860 20.12445 21.25224 21.40860 20.06455 
21.30387 22.90860 20.09807 21.25757 22.90860 20.04463 21.20413 22.90860 20.09093 
21.25043 22.90860 20.14437 21.30387 23.90860 20.09807 21.25757 23.90860 20.04463 
21.20413 23.90860 20.09093 21.25043 23.90860 20.14437 21.29179 22.90860 20.06176 
21.22126 22.90860 20.05671 21.21621 22.90860 20.12724 21.28674 22.90860 20.13229 
21.29179 23.90860 20.06176 21.22126 23.90860 20.05671 21.21621 23.90860 20.12724 
21.28674 23.90860 20.13229 21.30387 23.40860 20.09807 21.25757 23.40860 20.04463 
21.20413 23.40860 20.09093 21.25043 23.40860 20.14437 21.28674 23.40860 20.13229 
21.22126 23.40860 20.05671 21.29179 23.40860 20.06176 21.21621 23.40860 20.12724 
21.29779 23.90860 20.11863 21.27813 23.90860 20.05071 21.21021 23.90860 20.07037 
21.22987 23.90860 20.13829 21.29779 26.90860 20.11863 21.27813 26.90860 20.05071 
21.21021 26.90860 20.07037 21.22987 26.90860 20.13829 21.30203 23.90860 20.08059 
21.24009 23.90860 20.04647 21.20597 23.90860 20.10841 21.26791 23.90860 20.14253 
21.30203 26.90860 20.08059 21.24009 26.90860 20.04647 21.20597 26.90860 20.10841 
21.26791 26.90860 20.14253 21.29779 25.40860 20.11863 21.27813 25.40860 20.05071 
21.21021 25.40860 20.07037 21.22987 25.40860 20.13829 21.26791 25.40860 20.14253 
21.24009 25.40860 20.04647 21.30203 25.40860 20.08059 21.20597 25.40860 20.10841 
21.28683 27.22820 20.13222 21.29172 27.22820 20.06167 21.22117 27.22820 20.05678 
21.21628 27.22820 20.12733 21.28683 28.22820 20.13222 21.29172 28.22820 20.06167 
21.22117 28.22820 20.05678 21.21628 28.22820 20.12733 21.30388 27.22820 20.09796 
21.25746 27.22820 20.04462 21.20412 27.22820 20.09104 21.25054 27.22820 20.14438 
21.30388 28.22820 20.09796 21.25746 28.22820 20.04462 21.20412 28.22820 20.09104 
21.25054 28.22820 20.14438 21.28683 27.72820 20.13222 21.29172 27.72820 20.06167 
21.22117 27.72820 20.05678 21.21628 27.72820 20.12733 21.25054 27.72820 20.14438 
21.25746 27.72820 20.04462 21.30388 27.72820 20.09796 21.20412 27.72820 20.09104 
21.30399 28.53440 20.09536 21.25486 28.53440 20.04451 21.20401 28.53440 20.09364 
21.25314 28.53440 20.14449 21.30399 29.53440 20.09536 21.25486 29.53440 20.04451 
21.20401 29.53440 20.09364 21.25314 29.53440 20.14449 21.28996 28.53440 20.05976 
21.21926 28.53440 20.05854 21.21804 28.53440 20.12924 21.28874 28.53440 20.13046 
21.28996 29.53440 20.05976 21.21926 29.53440 20.05854 21.21804 29.53440 20.12924 
21.28874 29.53440 20.13046 21.30399 29.03440 20.09536 21.25486 29.03440 20.04451 
21.20401 29.03440 20.09364 21.25314 29.03440 20.14449 21.28874 29.03440 20.13046 
21.21926 29.03440 20.05854 21.28996 29.03440 20.05976 21.21804 29.03440 20.12924 
CELLS  6   150
24 0 1 2 3 4 5 6 7 8 9 10 11 12 13 14 15 16 17 18 19 20 21 22 23
24 24 25 26 27 28 29 30 31 32 33 34 35 36 37 38 39 40 41 42 43 44 45 46 47
24 48 49 50 51 52 53 54 55 56 57 58 59 60 61 62 63 64 65 66 67 68 69 70 71
24 72 73 74 75 76 77 78 79 80 81 82 83 84 85 86 87 88 89 90 91 92 93 94 95
24 96 97 98 99 100 101 102 103 104 105 106 107 108 109 110 111 112 113 114 115 116 117 118 119
24 120 121 122 123 124 125 126 127 128 129 130 131 132 133 134 135 136 137 138 139 140 141 142 143
CELL_TYPES  6 
33
33
33
33
33
33
CELL_DATA  6 
SCALARS average_vol_activity_bq_m3 double 1 
LOOKUP_TABLE default
98.49695
84.88244
43.01537
11.32298
2.06464
0.96638
SCALARS total_activity_bq double 1 
LOOKUP_TABLE default
0.03094
0.24000
0.33784
0.26679
0.01622
0.00759
SCALARS mc_error double 1 
LOOKUP_TABLE default
0.00000
0.00000
0.00040
0.00040
0.00040
0.00040
