# vtk DataFile Version 2.0
DGS printing
ASCII
DATASET UNSTRUCTURED_GRID
POINTS  144  floats
21.26326 20.90860 20.09827 21.25023 20.90860 20.10376 21.24474 20.90860 20.09073 
21.25777 20.90860 20.08524 21.26326 19.90860 20.09827 21.25023 19.90860 20.10376 
21.24474 19.90860 20.09073 21.25777 19.90860 20.08524 21.25788 20.90860 20.10372 
21.24478 20.90860 20.09838 21.25012 20.90860 20.08528 21.26322 20.90860 20.09062 
21.25788 19.90860 20.10372 21.24478 19.90860 20.09838 21.25012 19.90860 20.08528 
21.26322 19.90860 20.09062 21.26326 20.40860 20.09827 21.25023 20.40860 20.10376 
21.24474 20.40860 20.09073 21.25777 20.40860 20.08524 21.26322 20.40860 20.09062 
21.24478 20.40860 20.09838 21.25788 20.40860 20.10372 21.25012 20.40860 20.08528 
21.25626 21.90860 20.12441 21.22409 21.90860 20.09676 21.25174 21.90860 20.06459 
21.28391 21.90860 20.09224 21.25626 20.90860 20.12441 21.22409 20.90860 20.09676 
21.25174 20.90860 20.06459 21.28391 20.90860 20.09224 21.23445 21.90860 20.11725 
21.23125 21.90860 20.07495 21.27355 21.90860 20.07175 21.27675 21.90860 20.11405 
21.23445 20.90860 20.11725 21.23125 20.90860 20.07495 21.27355 20.90860 20.07175 
21.27675 20.90860 20.11405 21.25626 21.40860 20.12441 21.22409 21.40860 20.09676 
21.25174 21.40860 20.06459 21.28391 21.40860 20.09224 21.27675 21.40860 20.11405 
21.23125 21.40860 20.07495 21.23445 21.40860 20.11725 21.27355 21.40860 20.07175 
21.29243 22.90860 20.12648 21.28598 22.90860 20.05607 21.21557 22.90860 20.06252 
21.22202 22.90860 20.13293 21.29243 23.90860 20.12648 21.28598 23.90860 20.05607 
21.21557 23.90860 20.06252 21.22202 23.90860 20.13293 21.30379 22.90860 20.08994 
21.24944 22.90860 20.04471 21.20421 22.90860 20.09906 21.25856 22.90860 20.14429 
21.30379 23.90860 20.08994 21.24944 23.90860 20.04471 21.20421 23.90860 20.09906 
21.25856 23.90860 20.14429 21.29243 23.40860 20.12648 21.28598 23.40860 20.05607 
21.21557 23.40860 20.06252 21.22202 23.40860 20.13293 21.25856 23.40860 20.14429 
21.24944 23.40860 20.04471 21.30379 23.40860 20.08994 21.20421 23.40860 20.09906 
21.29795 23.90860 20.11834 21.27784 23.90860 20.05055 21.21005 23.90860 20.07066 
21.23016 23.90860 20.13845 21.29795 26.90860 20.11834 21.27784 26.90860 20.05055 
21.21005 26.90860 20.07066 21.23016 26.90860 20.13845 21.30194 23.90860 20.08028 
21.23978 23.90860 20.04656 21.20606 23.90860 20.10872 21.26822 23.90860 20.14244 
21.30194 26.90860 20.08028 21.23978 26.90860 20.04656 21.20606 26.90860 20.10872 
21.26822 26.90860 20.14244 21.29795 25.40860 20.11834 21.27784 25.40860 20.05055 
21.21005 25.40860 20.07066 21.23016 25.40860 20.13845 21.26822 25.40860 20.14244 
21.23978 25.40860 20.04656 21.30194 25.40860 20.08028 21.20606 25.40860 20.10872 
21.29917 27.22820 20.11594 21.27544 27.22820 20.04933 21.20883 27.22820 20.07306 
21.23256 27.22820 20.13967 21.29917 28.22820 20.11594 21.27544 28.22820 20.04933 
21.20883 28.22820 20.07306 21.23256 28.22820 20.13967 21.30110 27.22820 20.07772 
21.23722 27.22820 20.04740 21.20690 27.22820 20.11128 21.27078 27.22820 20.14160 
21.30110 28.22820 20.07772 21.23722 28.22820 20.04740 21.20690 28.22820 20.11128 
21.27078 28.22820 20.14160 21.29917 27.72820 20.11594 21.27544 27.72820 20.04933 
21.20883 27.72820 20.07306 21.23256 27.72820 20.13967 21.27078 27.72820 20.14160 
21.23722 27.72820 20.04740 21.30110 27.72820 20.07772 21.20690 27.72820 20.11128 
21.25765 28.53440 20.14437 21.30387 28.53440 20.09085 21.25035 28.53440 20.04463 
21.20413 28.53440 20.09815 21.25765 29.53440 20.14437 21.30387 29.53440 20.09085 
21.25035 29.53440 20.04463 21.20413 29.53440 20.09815 21.29184 28.53440 20.12718 
21.28668 28.53440 20.05666 21.21616 28.53440 20.06182 21.22132 28.53440 20.13234 
21.29184 29.53440 20.12718 21.28668 29.53440 20.05666 21.21616 29.53440 20.06182 
21.22132 29.53440 20.13234 21.25765 29.03440 20.14437 21.30387 29.03440 20.09085 
21.25035 29.03440 20.04463 21.20413 29.03440 20.09815 21.22132 29.03440 20.13234 
21.28668 29.03440 20.05666 21.29184 29.03440 20.12718 21.21616 29.03440 20.06182 
CELLS  6   150
24 0 1 2 3 4 5 6 7 8 9 10 11 12 13 14 15 16 17 18 19 20 21 22 23
24 24 25 26 27 28 29 30 31 32 33 34 35 36 37 38 39 40 41 42 43 44 45 46 47
24 48 49 50 51 52 53 54 55 56 57 58 59 60 61 62 63 64 65 66 67 68 69 70 71
24 72 73 74 75 76 77 78 79 80 81 82 83 84 85 86 87 88 89 90 91 92 93 94 95
24 96 97 98 99 100 101 102 103 104 105 106 107 108 109 110 111 112 113 114 115 116 117 118 119
24 120 121 122 123 124 125 126 127 128 129 130 131 132 133 134 135 136 137 138 139 140 141 142 143
CELL_TYPES  6 
33
33
33
33
33
33
CELL_DATA  6 
SCALARS average_vol_activity_bq_m3 double 1 
LOOKUP_TABLE default
98.49695
84.88244
2.05397
0.00000
0.00000
0.00000
SCALARS total_activity_bq double 1 
LOOKUP_TABLE default
0.03094
0.24000
0.01613
0.00000
0.00000
0.00000
SCALARS mc_error double 1 
LOOKUP_TABLE default
0.00000
0.00000
0.00791
0.00000
0.00000
0.00000
