# vtk DataFile Version 2.0
DGS printing
ASCII
DATASET UNSTRUCTURED_GRID
POINTS  144  floats
21.26136 20.90860 20.10127 21.24723 20.90860 20.10186 21.24664 20.90860 20.08773 
21.26077 20.90860 20.08714 21.26136 19.90860 20.10127 21.24723 19.90860 20.10186 
21.24664 19.90860 20.08773 21.26077 19.90860 20.08714 21.25442 20.90860 20.10449 
21.24401 20.90860 20.09492 21.25358 20.90860 20.08451 21.26399 20.90860 20.09408 
21.25442 19.90860 20.10449 21.24401 19.90860 20.09492 21.25358 19.90860 20.08451 
21.26399 19.90860 20.09408 21.26136 20.40860 20.10127 21.24723 20.40860 20.10186 
21.24664 20.40860 20.08773 21.26077 20.40860 20.08714 21.26399 20.40860 20.09408 
21.24401 20.40860 20.09492 21.25442 20.40860 20.10449 21.25358 20.40860 20.08451 
21.26980 21.90860 20.12000 21.22850 21.90860 20.11030 21.23820 21.90860 20.06900 
21.27950 21.90860 20.07870 21.26980 20.90860 20.12000 21.22850 20.90860 20.11030 
21.23820 20.90860 20.06900 21.27950 20.90860 20.07870 21.24714 21.90860 20.12371 
21.22479 21.90860 20.08764 21.26086 21.90860 20.06529 21.28321 21.90860 20.10136 
21.24714 20.90860 20.12371 21.22479 20.90860 20.08764 21.26086 20.90860 20.06529 
21.28321 20.90860 20.10136 21.26980 21.40860 20.12000 21.22850 21.40860 20.11030 
21.23820 21.40860 20.06900 21.27950 21.40860 20.07870 21.28321 21.40860 20.10136 
21.22479 21.40860 20.08764 21.24714 21.40860 20.12371 21.26086 21.40860 20.06529 
21.29977 22.90860 20.11464 21.27414 22.90860 20.04873 21.20823 22.90860 20.07436 
21.23386 22.90860 20.14027 21.29977 23.90860 20.11464 21.27414 23.90860 20.04873 
21.20823 23.90860 20.07436 21.23386 23.90860 20.14027 21.30060 22.90860 20.07638 
21.23588 22.90860 20.04790 21.20740 22.90860 20.11262 21.27212 22.90860 20.14110 
21.30060 23.90860 20.07638 21.23588 23.90860 20.04790 21.20740 23.90860 20.11262 
21.27212 23.90860 20.14110 21.29977 23.40860 20.11464 21.27414 23.40860 20.04873 
21.20823 23.40860 20.07436 21.23386 23.40860 20.14027 21.27212 23.40860 20.14110 
21.23588 23.40860 20.04790 21.30060 23.40860 20.07638 21.20740 23.40860 20.11262 
21.26397 23.90860 20.14350 21.30300 23.90860 20.08453 21.24403 23.90860 20.04550 
21.20500 23.90860 20.10447 21.26397 26.90860 20.14350 21.30300 26.90860 20.08453 
21.24403 26.90860 20.04550 21.20500 26.90860 20.10447 21.29569 23.90860 20.12210 
21.28160 23.90860 20.05281 21.21231 23.90860 20.06690 21.22640 23.90860 20.13619 
21.29569 26.90860 20.12210 21.28160 26.90860 20.05281 21.21231 26.90860 20.06690 
21.22640 26.90860 20.13619 21.26397 25.40860 20.14350 21.30300 25.40860 20.08453 
21.24403 25.40860 20.04550 21.20500 25.40860 20.10447 21.22640 25.40860 20.13619 
21.28160 25.40860 20.05281 21.29569 25.40860 20.12210 21.21231 25.40860 20.06690 
21.29365 27.22820 20.12497 21.28447 27.22820 20.05485 21.21435 27.22820 20.06403 
21.22353 27.22820 20.13415 21.29365 28.22820 20.12497 21.28447 28.22820 20.05485 
21.21435 28.22820 20.06403 21.22353 28.22820 20.13415 21.30358 27.22820 20.08801 
21.24751 27.22820 20.04492 21.20442 27.22820 20.10099 21.26049 27.22820 20.14408 
21.30358 28.22820 20.08801 21.24751 28.22820 20.04492 21.20442 28.22820 20.10099 
21.26049 28.22820 20.14408 21.29365 27.72820 20.12497 21.28447 27.72820 20.05485 
21.21435 27.72820 20.06403 21.22353 27.72820 20.13415 21.26049 27.72820 20.14408 
21.24751 27.72820 20.04492 21.30358 27.72820 20.08801 21.20442 27.72820 20.10099 
21.30399 28.53440 20.09551 21.25501 28.53440 20.04451 21.20401 28.53440 20.09349 
21.25299 28.53440 20.14449 21.30399 29.53440 20.09551 21.25501 29.53440 20.04451 
21.20401 29.53440 20.09349 21.25299 29.53440 20.14449 21.29006 28.53440 20.05987 
21.21937 28.53440 20.05844 21.21794 28.53440 20.12913 21.28863 28.53440 20.13056 
21.29006 29.53440 20.05987 21.21937 29.53440 20.05844 21.21794 29.53440 20.12913 
21.28863 29.53440 20.13056 21.30399 29.03440 20.09551 21.25501 29.03440 20.04451 
21.20401 29.03440 20.09349 21.25299 29.03440 20.14449 21.28863 29.03440 20.13056 
21.21937 29.03440 20.05844 21.29006 29.03440 20.05987 21.21794 29.03440 20.12913 
CELLS  6   150
24 0 1 2 3 4 5 6 7 8 9 10 11 12 13 14 15 16 17 18 19 20 21 22 23
24 24 25 26 27 28 29 30 31 32 33 34 35 36 37 38 39 40 41 42 43 44 45 46 47
24 48 49 50 51 52 53 54 55 56 57 58 59 60 61 62 63 64 65 66 67 68 69 70 71
24 72 73 74 75 76 77 78 79 80 81 82 83 84 85 86 87 88 89 90 91 92 93 94 95
24 96 97 98 99 100 101 102 103 104 105 106 107 108 109 110 111 112 113 114 115 116 117 118 119
24 120 121 122 123 124 125 126 127 128 129 130 131 132 133 134 135 136 137 138 139 140 141 142 143
CELL_TYPES  6 
33
33
33
33
33
33
CELL_DATA  6 
SCALARS average_vol_activity_bq_m3 double 1 
LOOKUP_TABLE default
98.49695
84.88244
31.03717
0.00000
0.00000
0.00000
SCALARS total_activity_bq double 1 
LOOKUP_TABLE default
0.03094
0.24000
0.24377
0.00000
0.00000
0.00000
SCALARS mc_error double 1 
LOOKUP_TABLE default
0.00000
0.00000
0.00103
0.00000
0.00000
0.00000
