# vtk DataFile Version 2.0
DGS printing
ASCII
DATASET UNSTRUCTURED_GRID
POINTS  144  floats
21.26114 20.90860 20.10150 21.24700 20.90860 20.10164 21.24686 20.90860 20.08750 
21.26100 20.90860 20.08736 21.26114 19.90860 20.10150 21.24700 19.90860 20.10164 
21.24686 19.90860 20.08750 21.26100 19.90860 20.08736 21.25410 20.90860 20.10450 
21.24400 20.90860 20.09460 21.25390 20.90860 20.08450 21.26400 20.90860 20.09440 
21.25410 19.90860 20.10450 21.24400 19.90860 20.09460 21.25390 19.90860 20.08450 
21.26400 19.90860 20.09440 21.26114 20.40860 20.10150 21.24700 20.40860 20.10164 
21.24686 20.40860 20.08750 21.26100 20.40860 20.08736 21.26400 20.40860 20.09440 
21.24400 20.40860 20.09460 21.25410 20.40860 20.10450 21.25390 20.40860 20.08450 
21.28044 21.90860 20.10867 21.23983 21.90860 20.12094 21.22756 21.90860 20.08033 
21.26817 21.90860 20.06806 21.28044 20.90860 20.10867 21.23983 20.90860 20.12094 
21.22756 20.90860 20.08033 21.26817 20.90860 20.06806 21.26268 21.90860 20.12322 
21.22528 21.90860 20.10318 21.24532 21.90860 20.06578 21.28272 21.90860 20.08582 
21.26268 20.90860 20.12322 21.22528 20.90860 20.10318 21.24532 20.90860 20.06578 
21.28272 20.90860 20.08582 21.28044 21.40860 20.10867 21.23983 21.40860 20.12094 
21.22756 21.40860 20.08033 21.26817 21.40860 20.06806 21.28272 21.40860 20.08582 
21.22528 21.40860 20.10318 21.26268 21.40860 20.12322 21.24532 21.40860 20.06578 
21.28870 22.90860 20.13050 21.29000 22.90860 20.05980 21.21930 22.90860 20.05850 
21.21800 22.90860 20.12920 21.28870 23.90860 20.13050 21.29000 23.90860 20.05980 
21.21930 23.90860 20.05850 21.21800 23.90860 20.12920 21.30399 22.90860 20.09542 
21.25492 22.90860 20.04451 21.20401 22.90860 20.09358 21.25308 22.90860 20.14449 
21.30399 23.90860 20.09542 21.25492 23.90860 20.04451 21.20401 23.90860 20.09358 
21.25308 23.90860 20.14449 21.28870 23.40860 20.13050 21.29000 23.40860 20.05980 
21.21930 23.40860 20.05850 21.21800 23.40860 20.12920 21.25308 23.40860 20.14449 
21.25492 23.40860 20.04451 21.30399 23.40860 20.09542 21.20401 23.40860 20.09358 
21.28623 23.90860 20.13273 21.29223 23.90860 20.06227 21.22177 23.90860 20.05627 
21.21577 23.90860 20.12673 21.28623 26.90860 20.13273 21.29223 26.90860 20.06227 
21.22177 26.90860 20.05627 21.21577 26.90860 20.12673 21.30382 23.90860 20.09875 
21.25825 23.90860 20.04468 21.20418 23.90860 20.09025 21.24975 23.90860 20.14432 
21.30382 26.90860 20.09875 21.25825 26.90860 20.04468 21.20418 26.90860 20.09025 
21.24975 26.90860 20.14432 21.28623 25.40860 20.13273 21.29223 25.40860 20.06227 
21.22177 25.40860 20.05627 21.21577 25.40860 20.12673 21.24975 25.40860 20.14432 
21.25825 25.40860 20.04468 21.30382 25.40860 20.09875 21.20418 25.40860 20.09025 
21.25867 27.22820 20.14428 21.30378 27.22820 20.08983 21.24933 27.22820 20.04472 
21.20422 27.22820 20.09917 21.25867 28.22820 20.14428 21.30378 28.22820 20.08983 
21.24933 28.22820 20.04472 21.20422 28.22820 20.09917 21.29250 27.22820 20.12640 
21.28590 27.22820 20.05600 21.21550 27.22820 20.06260 21.22210 27.22820 20.13300 
21.29250 28.22820 20.12640 21.28590 28.22820 20.05600 21.21550 28.22820 20.06260 
21.22210 28.22820 20.13300 21.25867 27.72820 20.14428 21.30378 27.72820 20.08983 
21.24933 27.72820 20.04472 21.20422 27.72820 20.09917 21.22210 27.72820 20.13300 
21.28590 27.72820 20.05600 21.29250 27.72820 20.12640 21.21550 27.72820 20.06260 
21.26615 28.53440 20.14300 21.30250 28.53440 20.08235 21.24185 28.53440 20.04600 
21.20550 28.53440 20.10665 21.26615 29.53440 20.14300 21.30250 29.53440 20.08235 
21.24185 29.53440 20.04600 21.20550 29.53440 20.10665 21.29688 28.53440 20.12021 
21.27971 28.53440 20.05162 21.21112 28.53440 20.06879 21.22829 28.53440 20.13738 
21.29688 29.53440 20.12021 21.27971 29.53440 20.05162 21.21112 29.53440 20.06879 
21.22829 29.53440 20.13738 21.26615 29.03440 20.14300 21.30250 29.03440 20.08235 
21.24185 29.03440 20.04600 21.20550 29.03440 20.10665 21.22829 29.03440 20.13738 
21.27971 29.03440 20.05162 21.29688 29.03440 20.12021 21.21112 29.03440 20.06879 
CELLS  6   150
24 0 1 2 3 4 5 6 7 8 9 10 11 12 13 14 15 16 17 18 19 20 21 22 23
24 24 25 26 27 28 29 30 31 32 33 34 35 36 37 38 39 40 41 42 43 44 45 46 47
24 48 49 50 51 52 53 54 55 56 57 58 59 60 61 62 63 64 65 66 67 68 69 70 71
24 72 73 74 75 76 77 78 79 80 81 82 83 84 85 86 87 88 89 90 91 92 93 94 95
24 96 97 98 99 100 101 102 103 104 105 106 107 108 109 110 111 112 113 114 115 116 117 118 119
24 120 121 122 123 124 125 126 127 128 129 130 131 132 133 134 135 136 137 138 139 140 141 142 143
CELL_TYPES  6 
33
33
33
33
33
33
CELL_DATA  6 
SCALARS node_id int 1 
LOOKUP_TABLE default
1
2
4
5
6
7
SCALARS average_vol_activity_bq_m3 double 1 
LOOKUP_TABLE default
9.84970e+01
8.48824e+01
3.10195e+01
0.00000e+00
0.00000e+00
0.00000e+00
SCALARS total_activity_bq double 1 
LOOKUP_TABLE default
3.09437e-02
2.39999e-01
2.43626e-01
0.00000e+00
0.00000e+00
0.00000e+00
SCALARS mc_error double 1 
LOOKUP_TABLE default
0.00000
0.00000
0.00105
0.00000
0.00000
0.00000
