# vtk DataFile Version 2.0
DGS printing
ASCII
DATASET UNSTRUCTURED_GRID
POINTS  144  floats
21.26244 20.90860 20.09986 21.24864 20.90860 20.10294 21.24556 20.90860 20.08914 
21.25936 20.90860 20.08606 21.26244 19.90860 20.09986 21.24864 19.90860 20.10294 
21.24556 19.90860 20.08914 21.25936 19.90860 20.08606 21.25618 20.90860 20.10426 
21.24424 20.90860 20.09668 21.25182 20.90860 20.08474 21.26376 20.90860 20.09232 
21.25618 19.90860 20.10426 21.24424 19.90860 20.09668 21.25182 19.90860 20.08474 
21.26376 19.90860 20.09232 21.26244 20.40860 20.09986 21.24864 20.40860 20.10294 
21.24556 20.40860 20.08914 21.25936 20.40860 20.08606 21.26376 20.40860 20.09232 
21.24424 20.40860 20.09668 21.25618 20.40860 20.10426 21.25182 20.40860 20.08474 
21.27144 21.90860 20.11891 21.22959 21.90860 20.11194 21.23656 21.90860 20.07009 
21.27841 21.90860 20.07706 21.27144 20.90860 20.11891 21.22959 20.90860 20.11194 
21.23656 20.90860 20.07009 21.27841 20.90860 20.07706 21.24907 21.90860 20.12409 
21.22441 21.90860 20.08957 21.25893 21.90860 20.06491 21.28359 21.90860 20.09943 
21.24907 20.90860 20.12409 21.22441 20.90860 20.08957 21.25893 20.90860 20.06491 
21.28359 20.90860 20.09943 21.27144 21.40860 20.11891 21.22959 21.40860 20.11194 
21.23656 21.40860 20.07009 21.27841 21.40860 20.07706 21.28359 21.40860 20.09943 
21.22441 21.40860 20.08957 21.24907 21.40860 20.12409 21.25893 21.40860 20.06491 
21.30399 22.90860 20.09525 21.25475 22.90860 20.04451 21.20401 22.90860 20.09375 
21.25325 22.90860 20.14449 21.30399 23.90860 20.09525 21.25475 23.90860 20.04451 
21.20401 23.90860 20.09375 21.25325 23.90860 20.14449 21.28988 22.90860 20.05968 
21.21918 22.90860 20.05862 21.21812 22.90860 20.12932 21.28882 22.90860 20.13038 
21.28988 23.90860 20.05968 21.21918 23.90860 20.05862 21.21812 23.90860 20.12932 
21.28882 23.90860 20.13038 21.30399 23.40860 20.09525 21.25475 23.40860 20.04451 
21.20401 23.40860 20.09375 21.25325 23.40860 20.14449 21.28882 23.40860 20.13038 
21.21918 23.40860 20.05862 21.28988 23.40860 20.05968 21.21812 23.40860 20.12932 
21.28099 23.90860 20.13659 21.29609 23.90860 20.06751 21.22701 23.90860 20.05241 
21.21191 23.90860 20.12149 21.28099 26.90860 20.13659 21.29609 26.90860 20.06751 
21.22701 26.90860 20.05241 21.21191 26.90860 20.12149 21.30285 23.90860 20.10517 
21.26467 23.90860 20.04565 21.20515 23.90860 20.08383 21.24333 23.90860 20.14335 
21.30285 26.90860 20.10517 21.26467 26.90860 20.04565 21.20515 26.90860 20.08383 
21.24333 26.90860 20.14335 21.28099 25.40860 20.13659 21.29609 25.40860 20.06751 
21.22701 25.40860 20.05241 21.21191 25.40860 20.12149 21.24333 25.40860 20.14335 
21.26467 25.40860 20.04565 21.30285 25.40860 20.10517 21.20515 25.40860 20.08383 
21.29061 27.22820 20.12855 21.28805 27.22820 20.05789 21.21739 27.22820 20.06045 
21.21995 27.22820 20.13111 21.29061 28.22820 20.12855 21.28805 28.22820 20.05789 
21.21739 28.22820 20.06045 21.21995 28.22820 20.13111 21.30397 27.22820 20.09269 
21.25219 27.22820 20.04453 21.20403 27.22820 20.09631 21.25581 27.22820 20.14447 
21.30397 28.22820 20.09269 21.25219 28.22820 20.04453 21.20403 28.22820 20.09631 
21.25581 28.22820 20.14447 21.29061 27.72820 20.12855 21.28805 27.72820 20.05789 
21.21739 27.72820 20.06045 21.21995 27.72820 20.13111 21.25581 27.72820 20.14447 
21.25219 27.72820 20.04453 21.30397 27.72820 20.09269 21.20403 27.72820 20.09631 
21.26259 28.53440 20.14376 21.30326 28.53440 20.08591 21.24541 28.53440 20.04524 
21.20474 28.53440 20.10309 21.26259 29.53440 20.14376 21.30326 29.53440 20.08591 
21.24541 29.53440 20.04524 21.20474 29.53440 20.10309 21.29491 28.53440 20.12325 
21.28275 28.53440 20.05359 21.21309 28.53440 20.06575 21.22525 28.53440 20.13541 
21.29491 29.53440 20.12325 21.28275 29.53440 20.05359 21.21309 29.53440 20.06575 
21.22525 29.53440 20.13541 21.26259 29.03440 20.14376 21.30326 29.03440 20.08591 
21.24541 29.03440 20.04524 21.20474 29.03440 20.10309 21.22525 29.03440 20.13541 
21.28275 29.03440 20.05359 21.29491 29.03440 20.12325 21.21309 29.03440 20.06575 
CELLS  6   150
24 0 1 2 3 4 5 6 7 8 9 10 11 12 13 14 15 16 17 18 19 20 21 22 23
24 24 25 26 27 28 29 30 31 32 33 34 35 36 37 38 39 40 41 42 43 44 45 46 47
24 48 49 50 51 52 53 54 55 56 57 58 59 60 61 62 63 64 65 66 67 68 69 70 71
24 72 73 74 75 76 77 78 79 80 81 82 83 84 85 86 87 88 89 90 91 92 93 94 95
24 96 97 98 99 100 101 102 103 104 105 106 107 108 109 110 111 112 113 114 115 116 117 118 119
24 120 121 122 123 124 125 126 127 128 129 130 131 132 133 134 135 136 137 138 139 140 141 142 143
CELL_TYPES  6 
33
33
33
33
33
33
CELL_DATA  6 
SCALARS average_vol_activity_bq_m3 double 1 
LOOKUP_TABLE default
98.49695
84.88244
31.09447
0.00000
0.00000
0.00000
SCALARS total_activity_bq double 1 
LOOKUP_TABLE default
0.03094
0.24000
0.24422
0.00000
0.00000
0.00000
SCALARS mc_error double 1 
LOOKUP_TABLE default
0.00000
0.00000
0.00102
0.00000
0.00000
0.00000
