# vtk DataFile Version 2.0
DGS printing
ASCII
DATASET UNSTRUCTURED_GRID
POINTS  144  floats
21.25829 20.90860 20.10353 21.24497 20.90860 20.09879 21.24971 20.90860 20.08547 
21.26303 20.90860 20.09021 21.25829 19.90860 20.10353 21.24497 19.90860 20.09879 
21.24971 19.90860 20.08547 21.26303 19.90860 20.09021 21.25065 20.90860 20.10392 
21.24458 20.90860 20.09115 21.25735 20.90860 20.08508 21.26342 20.90860 20.09785 
21.25065 19.90860 20.10392 21.24458 19.90860 20.09115 21.25735 19.90860 20.08508 
21.26342 19.90860 20.09785 21.25829 20.40860 20.10353 21.24497 20.40860 20.09879 
21.24971 20.40860 20.08547 21.26303 20.40860 20.09021 21.26342 20.40860 20.09785 
21.24458 20.40860 20.09115 21.25065 20.40860 20.10392 21.25735 20.40860 20.08508 
21.27854 21.90860 20.11175 21.23675 21.90860 20.11904 21.22946 21.90860 20.07725 
21.27125 21.90860 20.06996 21.27854 20.90860 20.11175 21.23675 20.90860 20.11904 
21.22946 20.90860 20.07725 21.27125 20.90860 20.06996 21.25916 21.90860 20.12405 
21.22445 21.90860 20.09966 21.24884 21.90860 20.06495 21.28355 21.90860 20.08934 
21.25916 20.90860 20.12405 21.22445 20.90860 20.09966 21.24884 20.90860 20.06495 
21.28355 20.90860 20.08934 21.27854 21.40860 20.11175 21.23675 21.40860 20.11904 
21.22946 21.40860 20.07725 21.27125 21.40860 20.06996 21.28355 21.40860 20.08934 
21.22445 21.40860 20.09966 21.25916 21.40860 20.12405 21.24884 21.40860 20.06495 
21.25934 22.90860 20.14421 21.30371 22.90860 20.08916 21.24866 22.90860 20.04479 
21.20429 22.90860 20.09984 21.25934 23.90860 20.14421 21.30371 23.90860 20.08916 
21.24866 23.90860 20.04479 21.20429 23.90860 20.09984 21.29293 22.90860 20.12588 
21.28538 22.90860 20.05557 21.21507 22.90860 20.06312 21.22262 22.90860 20.13343 
21.29293 23.90860 20.12588 21.28538 23.90860 20.05557 21.21507 23.90860 20.06312 
21.22262 23.90860 20.13343 21.25934 23.40860 20.14421 21.30371 23.40860 20.08916 
21.24866 23.40860 20.04479 21.20429 23.40860 20.09984 21.22262 23.40860 20.13343 
21.28538 23.40860 20.05557 21.29293 23.40860 20.12588 21.21507 23.40860 20.06312 
21.25946 23.90860 20.14420 21.30370 23.90860 20.08904 21.24854 23.90860 20.04480 
21.20430 23.90860 20.09996 21.25946 26.90860 20.14420 21.30370 26.90860 20.08904 
21.24854 26.90860 20.04480 21.20430 26.90860 20.09996 21.29300 23.90860 20.12578 
21.28528 23.90860 20.05550 21.21500 23.90860 20.06322 21.22272 23.90860 20.13350 
21.29300 26.90860 20.12578 21.28528 26.90860 20.05550 21.21500 26.90860 20.06322 
21.22272 26.90860 20.13350 21.25946 25.40860 20.14420 21.30370 25.40860 20.08904 
21.24854 25.40860 20.04480 21.20430 25.40860 20.09996 21.22272 25.40860 20.13350 
21.28528 25.40860 20.05550 21.29300 25.40860 20.12578 21.21500 25.40860 20.06322 
21.29343 27.22820 20.12525 21.28475 27.22820 20.05507 21.21457 27.22820 20.06375 
21.22325 27.22820 20.13393 21.29343 28.22820 20.12525 21.28475 28.22820 20.05507 
21.21457 28.22820 20.06375 21.22325 28.22820 20.13393 21.30362 27.22820 20.08837 
21.24787 27.22820 20.04488 21.20438 27.22820 20.10063 21.26013 27.22820 20.14412 
21.30362 28.22820 20.08837 21.24787 28.22820 20.04488 21.20438 28.22820 20.10063 
21.26013 28.22820 20.14412 21.29343 27.72820 20.12525 21.28475 27.72820 20.05507 
21.21457 27.72820 20.06375 21.22325 27.72820 20.13393 21.26013 27.72820 20.14412 
21.24787 27.72820 20.04488 21.30362 27.72820 20.08837 21.20438 27.72820 20.10063 
21.27465 28.53440 20.14003 21.29953 28.53440 20.07385 21.23335 28.53440 20.04897 
21.20847 28.53440 20.11515 21.27465 29.53440 20.14003 21.29953 29.53440 20.07385 
21.23335 29.53440 20.04897 21.20847 29.53440 20.11515 21.30080 28.53440 20.11209 
21.27159 28.53440 20.04770 21.20720 28.53440 20.07691 21.23641 28.53440 20.14130 
21.30080 29.53440 20.11209 21.27159 29.53440 20.04770 21.20720 29.53440 20.07691 
21.23641 29.53440 20.14130 21.27465 29.03440 20.14003 21.29953 29.03440 20.07385 
21.23335 29.03440 20.04897 21.20847 29.03440 20.11515 21.23641 29.03440 20.14130 
21.27159 29.03440 20.04770 21.30080 29.03440 20.11209 21.20720 29.03440 20.07691 
CELLS  6   150
24 0 1 2 3 4 5 6 7 8 9 10 11 12 13 14 15 16 17 18 19 20 21 22 23
24 24 25 26 27 28 29 30 31 32 33 34 35 36 37 38 39 40 41 42 43 44 45 46 47
24 48 49 50 51 52 53 54 55 56 57 58 59 60 61 62 63 64 65 66 67 68 69 70 71
24 72 73 74 75 76 77 78 79 80 81 82 83 84 85 86 87 88 89 90 91 92 93 94 95
24 96 97 98 99 100 101 102 103 104 105 106 107 108 109 110 111 112 113 114 115 116 117 118 119
24 120 121 122 123 124 125 126 127 128 129 130 131 132 133 134 135 136 137 138 139 140 141 142 143
CELL_TYPES  6 
33
33
33
33
33
33
CELL_DATA  6 
SCALARS node_id int 1 
LOOKUP_TABLE default
1
2
4
5
6
7
SCALARS average_vol_activity_bq_m3 double 1 
LOOKUP_TABLE default
9.84970e+01
8.48824e+01
4.30346e+01
1.13280e+01
2.06556e+00
9.66815e-01
SCALARS total_activity_bq double 1 
LOOKUP_TABLE default
3.09437e-02
2.39999e-01
3.37993e-01
2.66910e-01
1.62229e-02
7.59334e-03
SCALARS mc_error double 1 
LOOKUP_TABLE default
0.00000
0.00000
0.00000
0.00000
0.00000
0.00000
