# vtk DataFile Version 2.0
DGS printing
ASCII
DATASET UNSTRUCTURED_GRID
POINTS  144  floats
21.26005 20.90860 20.10246 21.24604 20.90860 20.10055 21.24795 20.90860 20.08654 
21.26196 20.90860 20.08845 21.26005 19.90860 20.10246 21.24604 19.90860 20.10055 
21.24795 19.90860 20.08654 21.26196 19.90860 20.08845 21.25265 20.90860 20.10441 
21.24409 20.90860 20.09315 21.25535 20.90860 20.08459 21.26391 20.90860 20.09585 
21.25265 19.90860 20.10441 21.24409 19.90860 20.09315 21.25535 19.90860 20.08459 
21.26391 19.90860 20.09585 21.26005 20.40860 20.10246 21.24604 20.40860 20.10055 
21.24795 20.40860 20.08654 21.26196 20.40860 20.08845 21.26391 20.40860 20.09585 
21.24409 20.40860 20.09315 21.25265 20.40860 20.10441 21.25535 20.40860 20.08459 
21.28070 21.90860 20.10818 21.24032 21.90860 20.12120 21.22730 21.90860 20.08082 
21.26768 21.90860 20.06780 21.28070 20.90860 20.10818 21.24032 20.90860 20.12120 
21.22730 20.90860 20.08082 21.26768 20.90860 20.06780 21.26321 21.90860 20.12305 
21.22545 21.90860 20.10371 21.24479 21.90860 20.06595 21.28255 21.90860 20.08529 
21.26321 20.90860 20.12305 21.22545 20.90860 20.10371 21.24479 20.90860 20.06595 
21.28255 20.90860 20.08529 21.28070 21.40860 20.10818 21.24032 21.40860 20.12120 
21.22730 21.40860 20.08082 21.26768 21.40860 20.06780 21.28255 21.40860 20.08529 
21.22545 21.40860 20.10371 21.26321 21.40860 20.12305 21.24479 21.40860 20.06595 
21.28674 22.90860 20.13229 21.29179 22.90860 20.06176 21.22126 22.90860 20.05671 
21.21621 22.90860 20.12724 21.28674 23.90860 20.13229 21.29179 23.90860 20.06176 
21.22126 23.90860 20.05671 21.21621 23.90860 20.12724 21.30387 22.90860 20.09808 
21.25758 22.90860 20.04463 21.20413 22.90860 20.09092 21.25042 22.90860 20.14437 
21.30387 23.90860 20.09808 21.25758 23.90860 20.04463 21.20413 23.90860 20.09092 
21.25042 23.90860 20.14437 21.28674 23.40860 20.13229 21.29179 23.40860 20.06176 
21.22126 23.40860 20.05671 21.21621 23.40860 20.12724 21.25042 23.40860 20.14437 
21.25758 23.40860 20.04463 21.30387 23.40860 20.09808 21.20413 23.40860 20.09092 
21.26135 23.90860 20.14396 21.30346 23.90860 20.08715 21.24665 23.90860 20.04504 
21.20454 23.90860 20.10185 21.26135 26.90860 20.14396 21.30346 26.90860 20.08715 
21.24665 26.90860 20.04504 21.20454 26.90860 20.10185 21.29417 23.90860 20.12427 
21.28377 23.90860 20.05433 21.21383 23.90860 20.06473 21.22423 23.90860 20.13467 
21.29417 26.90860 20.12427 21.28377 26.90860 20.05433 21.21383 26.90860 20.06473 
21.22423 26.90860 20.13467 21.26135 25.40860 20.14396 21.30346 25.40860 20.08715 
21.24665 25.40860 20.04504 21.20454 25.40860 20.10185 21.22423 25.40860 20.13467 
21.28377 25.40860 20.05433 21.29417 25.40860 20.12427 21.21383 25.40860 20.06473 
21.27954 27.22820 20.13749 21.29699 27.22820 20.06896 21.22846 27.22820 20.05151 
21.21101 27.22820 20.12004 21.27954 28.22820 20.13749 21.29699 28.22820 20.06896 
21.22846 28.22820 20.05151 21.21101 28.22820 20.12004 21.30245 27.22820 20.10684 
21.26634 27.22820 20.04605 21.20555 27.22820 20.08216 21.24166 27.22820 20.14295 
21.30245 28.22820 20.10684 21.26634 28.22820 20.04605 21.20555 28.22820 20.08216 
21.24166 28.22820 20.14295 21.27954 27.72820 20.13749 21.29699 27.72820 20.06896 
21.22846 27.72820 20.05151 21.21101 27.72820 20.12004 21.24166 27.72820 20.14295 
21.26634 27.72820 20.04605 21.30245 27.72820 20.10684 21.20555 27.72820 20.08216 
21.28981 28.53440 20.12940 21.28890 28.53440 20.05869 21.21819 28.53440 20.05960 
21.21910 28.53440 20.13031 21.28981 29.53440 20.12940 21.28890 29.53440 20.05869 
21.21819 29.53440 20.05960 21.21910 29.53440 20.13031 21.30400 28.53440 20.09385 
21.25335 28.53440 20.04450 21.20400 28.53440 20.09515 21.25465 28.53440 20.14450 
21.30400 29.53440 20.09385 21.25335 29.53440 20.04450 21.20400 29.53440 20.09515 
21.25465 29.53440 20.14450 21.28981 29.03440 20.12940 21.28890 29.03440 20.05869 
21.21819 29.03440 20.05960 21.21910 29.03440 20.13031 21.25465 29.03440 20.14450 
21.25335 29.03440 20.04450 21.30400 29.03440 20.09385 21.20400 29.03440 20.09515 
CELLS  6   150
24 0 1 2 3 4 5 6 7 8 9 10 11 12 13 14 15 16 17 18 19 20 21 22 23
24 24 25 26 27 28 29 30 31 32 33 34 35 36 37 38 39 40 41 42 43 44 45 46 47
24 48 49 50 51 52 53 54 55 56 57 58 59 60 61 62 63 64 65 66 67 68 69 70 71
24 72 73 74 75 76 77 78 79 80 81 82 83 84 85 86 87 88 89 90 91 92 93 94 95
24 96 97 98 99 100 101 102 103 104 105 106 107 108 109 110 111 112 113 114 115 116 117 118 119
24 120 121 122 123 124 125 126 127 128 129 130 131 132 133 134 135 136 137 138 139 140 141 142 143
CELL_TYPES  6 
33
33
33
33
33
33
CELL_DATA  6 
SCALARS node_id int 1 
LOOKUP_TABLE default
1
2
4
5
6
7
SCALARS average_vol_activity_bq_m3 double 1 
LOOKUP_TABLE default
9.84970e+01
8.48824e+01
1.99903e+00
0.00000e+00
0.00000e+00
0.00000e+00
SCALARS total_activity_bq double 1 
LOOKUP_TABLE default
3.09437e-02
2.39999e-01
1.57004e-02
0.00000e+00
0.00000e+00
0.00000e+00
SCALARS mc_error double 1 
LOOKUP_TABLE default
0.00000
0.00000
0.00821
0.00000
0.00000
0.00000
