# vtk DataFile Version 2.0
DGS printing
ASCII
DATASET UNSTRUCTURED_GRID
POINTS  144  floats
21.25683 20.90860 20.10409 21.24441 20.90860 20.09733 21.25117 20.90860 20.08491 
21.26359 20.90860 20.09167 21.25683 19.90860 20.10409 21.24441 19.90860 20.09733 
21.25117 19.90860 20.08491 21.26359 19.90860 20.09167 21.24922 20.90860 20.10328 
21.24522 20.90860 20.08972 21.25878 20.90860 20.08572 21.26278 20.90860 20.09928 
21.24922 19.90860 20.10328 21.24522 19.90860 20.08972 21.25878 19.90860 20.08572 
21.26278 19.90860 20.09928 21.25683 20.40860 20.10409 21.24441 20.40860 20.09733 
21.25117 20.40860 20.08491 21.26359 20.40860 20.09167 21.26278 20.40860 20.09928 
21.24522 20.40860 20.08972 21.24922 20.40860 20.10328 21.25878 20.40860 20.08572 
21.25754 21.90860 20.12429 21.22421 21.90860 20.09804 21.25046 21.90860 20.06471 
21.28379 21.90860 20.09096 21.25754 20.90860 20.12429 21.22421 20.90860 20.09804 
21.25046 20.90860 20.06471 21.28379 20.90860 20.09096 21.23544 21.90860 20.11807 
21.23043 21.90860 20.07594 21.27256 21.90860 20.07093 21.27757 21.90860 20.11306 
21.23544 20.90860 20.11807 21.23043 20.90860 20.07594 21.27256 20.90860 20.07093 
21.27757 20.90860 20.11306 21.25754 21.40860 20.12429 21.22421 21.40860 20.09804 
21.25046 21.40860 20.06471 21.28379 21.40860 20.09096 21.27757 21.40860 20.11306 
21.23043 21.40860 20.07594 21.23544 21.40860 20.11807 21.27256 21.40860 20.07093 
21.30390 22.90860 20.09760 21.25710 22.90860 20.04460 21.20410 22.90860 20.09140 
21.25090 22.90860 20.14440 21.30390 23.90860 20.09760 21.25710 23.90860 20.04460 
21.20410 23.90860 20.09140 21.25090 23.90860 20.14440 21.29148 22.90860 20.06141 
21.22091 22.90860 20.05702 21.21652 22.90860 20.12759 21.28709 22.90860 20.13198 
21.29148 23.90860 20.06141 21.22091 23.90860 20.05702 21.21652 23.90860 20.12759 
21.28709 23.90860 20.13198 21.30390 23.40860 20.09760 21.25710 23.40860 20.04460 
21.20410 23.40860 20.09140 21.25090 23.40860 20.14440 21.28709 23.40860 20.13198 
21.22091 23.40860 20.05702 21.29148 23.40860 20.06141 21.21652 23.40860 20.12759 
21.28109 23.90860 20.13652 21.29602 23.90860 20.06741 21.22691 23.90860 20.05248 
21.21198 23.90860 20.12159 21.28109 26.90860 20.13652 21.29602 26.90860 20.06741 
21.22691 26.90860 20.05248 21.21198 26.90860 20.12159 21.30287 23.90860 20.10506 
21.26456 23.90860 20.04563 21.20513 23.90860 20.08394 21.24344 23.90860 20.14337 
21.30287 26.90860 20.10506 21.26456 26.90860 20.04563 21.20513 26.90860 20.08394 
21.24344 26.90860 20.14337 21.28109 25.40860 20.13652 21.29602 25.40860 20.06741 
21.22691 25.40860 20.05248 21.21198 25.40860 20.12159 21.24344 25.40860 20.14337 
21.26456 25.40860 20.04563 21.30287 25.40860 20.10506 21.20513 25.40860 20.08394 
21.29117 27.22820 20.12795 21.28745 27.22820 20.05733 21.21683 27.22820 20.06105 
21.22055 27.22820 20.13167 21.29117 28.22820 20.12795 21.28745 28.22820 20.05733 
21.21683 28.22820 20.06105 21.22055 28.22820 20.13167 21.30393 27.22820 20.09187 
21.25137 27.22820 20.04457 21.20407 27.22820 20.09713 21.25663 27.22820 20.14443 
21.30393 28.22820 20.09187 21.25137 28.22820 20.04457 21.20407 28.22820 20.09713 
21.25663 28.22820 20.14443 21.29117 27.72820 20.12795 21.28745 27.72820 20.05733 
21.21683 27.72820 20.06105 21.22055 27.72820 20.13167 21.25663 27.72820 20.14443 
21.25137 27.72820 20.04457 21.30393 27.72820 20.09187 21.20407 27.72820 20.09713 
21.30400 28.53440 20.09465 21.25415 28.53440 20.04450 21.20400 28.53440 20.09435 
21.25385 28.53440 20.14450 21.30400 29.53440 20.09465 21.25415 29.53440 20.04450 
21.20400 29.53440 20.09435 21.25385 29.53440 20.14450 21.28946 28.53440 20.05925 
21.21875 28.53440 20.05904 21.21854 28.53440 20.12975 21.28925 28.53440 20.12996 
21.28946 29.53440 20.05925 21.21875 29.53440 20.05904 21.21854 29.53440 20.12975 
21.28925 29.53440 20.12996 21.30400 29.03440 20.09465 21.25415 29.03440 20.04450 
21.20400 29.03440 20.09435 21.25385 29.03440 20.14450 21.28925 29.03440 20.12996 
21.21875 29.03440 20.05904 21.28946 29.03440 20.05925 21.21854 29.03440 20.12975 
CELLS  6   150
24 0 1 2 3 4 5 6 7 8 9 10 11 12 13 14 15 16 17 18 19 20 21 22 23
24 24 25 26 27 28 29 30 31 32 33 34 35 36 37 38 39 40 41 42 43 44 45 46 47
24 48 49 50 51 52 53 54 55 56 57 58 59 60 61 62 63 64 65 66 67 68 69 70 71
24 72 73 74 75 76 77 78 79 80 81 82 83 84 85 86 87 88 89 90 91 92 93 94 95
24 96 97 98 99 100 101 102 103 104 105 106 107 108 109 110 111 112 113 114 115 116 117 118 119
24 120 121 122 123 124 125 126 127 128 129 130 131 132 133 134 135 136 137 138 139 140 141 142 143
CELL_TYPES  6 
33
33
33
33
33
33
CELL_DATA  6 
SCALARS node_id int 1 
LOOKUP_TABLE default
1
2
4
5
6
7
SCALARS average_vol_activity_bq_m3 double 1 
LOOKUP_TABLE default
9.84970e+01
8.48824e+01
2.01289e+00
0.00000e+00
0.00000e+00
0.00000e+00
SCALARS total_activity_bq double 1 
LOOKUP_TABLE default
3.09437e-02
2.39999e-01
1.58092e-02
0.00000e+00
0.00000e+00
0.00000e+00
SCALARS mc_error double 1 
LOOKUP_TABLE default
0.00000
0.00000
0.00824
0.00000
0.00000
0.00000
