# Selection : patch(face27)
# Faces  :    106
# Area   :    1.506279e-04
# Time        	sum(phi)
0             	1.712244e-04
32            	1.712244e-04
