/*--------------------------------*- C++ -*----------------------------------*\
  =========                 |
  \\      /  F ield         | OpenFOAM: The Open Source CFD Toolbox
   \\    /   O peration     | Website:  https://openfoam.org
    \\  /    A nd           | Version:  10
     \\/     M anipulation  |
\*---------------------------------------------------------------------------*/
FoamFile
{
    format      ascii;
    class       volScalarField;
    location    "32";
    object      Cz;
}
// * * * * * * * * * * * * * * * * * * * * * * * * * * * * * * * * * * * * * //

dimensions      [0 1 0 0 0 0 0];

internalField   nonuniform List<scalar> 
143879
(
-0.00527956
-0.0051291
-0.00518219
-0.00527726
-0.00512729
-0.00516344
-0.00483132
-0.00533782
-0.00517652
-0.0047992
-0.0052738
-0.00512457
-0.00516266
-0.0048297
-0.00539995
-0.00484885
-0.00462577
-0.00465587
-0.00562021
-0.00532923
-0.00513907
-0.005168
-0.00479121
-0.00455258
-0.00536586
-0.00515888
-0.00516148
-0.00482729
-0.00539751
-0.00484752
-0.00462133
-0.00465521
-0.00574355
-0.00532155
-0.0047053
-0.00428831
-0.00431853
-0.00586992
-0.00561149
-0.00566161
-0.00531635
-0.00512419
-0.00483851
-0.00525108
-0.00525538
-0.00477923
-0.0045399
-0.00411915
-0.00459863
-0.00556351
-0.00524788
-0.00498906
-0.00524697
-0.00515462
-0.00539386
-0.00484552
-0.00482836
-0.00461468
-0.00465421
-0.00574164
-0.00531656
-0.00470204
-0.00428549
-0.00431785
-0.00601162
-0.00555821
-0.00495693
-0.00434192
-0.0040194
-0.00401181
-0.00606649
-0.00586468
-0.0055984
-0.00564583
-0.00551086
-0.00587256
-0.00510186
-0.00482115
-0.00523115
-0.00466011
-0.00508945
-0.00507365
-0.00474077
-0.00452088
-0.00410684
-0.0045819
-0.00385501
-0.00427712
-0.00576802
-0.0054955
-0.00533597
-0.00514108
-0.00499069
-0.00507715
-0.00521893
-0.00498117
-0.0051892
-0.00573876
-0.00534051
-0.00530907
-0.00484296
-0.00469716
-0.00473613
-0.00476847
-0.0046357
-0.00428128
-0.00469661
-0.00431684
-0.00600781
-0.00554999
-0.00495137
-0.0043377
-0.00401328
-0.0040104
-0.00638446
-0.00589262
-0.00550012
-0.00478812
-0.00401632
-0.00419833
-0.00357275
-0.00354365
-0.00631993
-0.00605862
-0.00603568
-0.00585682
-0.00562215
-0.00549004
-0.00585431
-0.00562663
-0.00593976
-0.00479512
-0.00520127
-0.00463669
-0.00506262
-0.00435357
-0.00479568
-0.00525176
-0.00487183
-0.00507734
-0.00460701
-0.00465059
-0.00451865
-0.00408839
-0.00455682
-0.00383857
-0.004256
-0.00337103
-0.00396461
-0.00584188
-0.00554486
-0.00563132
-0.00522917
-0.00486546
-0.00507878
-0.00504911
-0.0053799
-0.00490112
-0.00501574
-0.00533152
-0.0060021
-0.00574176
-0.00525548
-0.00548283
-0.00526465
-0.00553768
-0.00494306
-0.00473889
-0.00481453
-0.00433137
-0.00458266
-0.00466626
-0.00448224
-0.00431397
-0.0040041
-0.00459253
-0.00439706
-0.00400829
-0.00638163
-0.00588528
-0.00548711
-0.00477852
-0.0040132
-0.00419218
-0.00356942
-0.00354289
-0.00652755
-0.00652555
-0.00611237
-0.0057887
-0.0050898
-0.00440779
-0.00368493
-0.00382938
-0.00319579
-0.00308848
-0.00645785
-0.00631056
-0.00637778
-0.00604682
-0.0060214
-0.00622788
-0.00545883
-0.00582694
-0.00559779
-0.0059146
-0.00553127
-0.00584234
-0.00614461
-0.00473807
-0.00460158
-0.00510799
-0.00502239
-0.00432899
-0.00476775
-0.00521731
-0.00415722
-0.0046526
-0.00514899
-0.00487552
-0.00504321
-0.00438939
-0.00443604
-0.00481404
-0.00430103
-0.00410435
-0.00381391
-0.00422434
-0.00335784
-0.00394339
-0.00307424
-0.00369242
-0.00602206
-0.00581034
-0.0054353
-0.00569739
-0.00559978
-0.00576443
-0.00527915
-0.00465091
-0.00499225
-0.00505405
-0.00535444
-0.00479891
-0.00492805
-0.00490673
-0.00530606
-0.00601199
-0.00637733
-0.00587427
-0.00587435
-0.00538402
-0.00499516
-0.00552159
-0.00543139
-0.00499153
-0.00546759
-0.00476413
-0.00482732
-0.00469263
-0.00430574
-0.00400852
-0.00418295
-0.00449069
-0.00451184
-0.00456823
-0.00462358
-0.00439026
-0.00431273
-0.004222
-0.00404502
-0.00356444
-0.00432188
-0.00428393
-0.00403588
-0.00354175
-0.00652258
-0.00652069
-0.00610196
-0.00577114
-0.00507582
-0.00439837
-0.00368043
-0.00382302
-0.00318961
-0.00308681
-0.00679906
-0.00640393
-0.00681684
-0.00607359
-0.00584966
-0.0050043
-0.00409624
-0.00321779
-0.00371722
-0.0026901
-0.00261694
-0.00644787
-0.00663858
-0.00629649
-0.00636199
-0.0065362
-0.00599998
-0.00621002
-0.00627261
-0.00541875
-0.00555454
-0.00587687
-0.00549557
-0.00581147
-0.00611655
-0.00575211
-0.00599695
-0.00618797
-0.00452046
-0.00447804
-0.00429213
-0.00472589
-0.00496861
-0.0052217
-0.00516566
-0.00412967
-0.00461885
-0.00510569
-0.00380692
-0.0043235
-0.00484424
-0.00544052
-0.00466098
-0.00515693
-0.00473453
-0.00459949
-0.00419586
-0.00392737
-0.00377468
-0.00333807
-0.00391158
-0.00305963
-0.00366963
-0.00252105
-0.0032857
-0.00597007
-0.00618693
-0.00600767
-0.00558783
-0.00565233
-0.00573289
-0.00513661
-0.0046069
-0.00477305
-0.00499557
-0.00486889
-0.00535444
-0.00535444
-0.00479127
-0.00507604
-0.00481903
-0.00535444
-0.0054483
-0.00623794
-0.00586567
-0.00641263
-0.0065151
-0.00651339
-0.00581006
-0.00608633
-0.00572802
-0.00602385
-0.00553484
-0.00531073
-0.00490746
-0.00541652
-0.00493095
-0.00549015
-0.0057448
-0.00505486
-0.00478978
-0.00438426
-0.00470542
-0.00471636
-0.00446481
-0.00407049
-0.00419111
-0.00367369
-0.00381349
-0.00441986
-0.00442119
-0.00470088
-0.00448018
-0.00468225
-0.00426289
-0.00422075
-0.00387295
-0.00354165
-0.00318033
-0.00420875
-0.00434001
-0.00409196
-0.00378739
-0.00354262
-0.00308431
-0.00679044
-0.00639465
-0.00681097
-0.00605767
-0.00582487
-0.00498511
-0.00408533
-0.00321398
-0.00370903
-0.00268719
-0.00261599
-0.00687619
-0.00703837
-0.00661745
-0.00687475
-0.00704285
-0.00643279
-0.00629753
-0.00546618
-0.00445286
-0.00401433
-0.0029629
-0.00331097
-0.00231113
-0.0020883
-0.0064329
-0.00662128
-0.00678357
-0.00666938
-0.00633829
-0.00651578
-0.00660134
-0.00618323
-0.00624797
-0.0064846
-0.00548381
-0.00544203
-0.00576519
-0.00572904
-0.00607448
-0.00570615
-0.00595916
-0.00615204
-0.00576677
-0.00599987
-0.0063835
-0.0042418
-0.00457767
-0.0040884
-0.00474697
-0.00456826
-0.00497904
-0.00511238
-0.00508766
-0.00504079
-0.00378126
-0.00429127
-0.00480264
-0.00538774
-0.00355937
-0.00413107
-0.00473201
-0.00542221
-0.00493168
-0.00462904
-0.00399594
-0.00379465
-0.00384326
-0.00341993
-0.00303774
-0.00363548
-0.00251184
-0.00326624
-0.00211809
-0.00300348
-0.00610605
-0.00622191
-0.00620408
-0.00598544
-0.00559102
-0.00584066
-0.00597842
-0.00491741
-0.00513993
-0.00444221
-0.00460836
-0.00474955
-0.00482893
-0.00535444
-0.00535444
-0.00493608
-0.00577681
-0.00535444
-0.00486124
-0.00504641
-0.00506576
-0.00526614
-0.00566852
-0.00565473
-0.00630415
-0.00624507
-0.00596841
-0.0065185
-0.0067775
-0.00638072
-0.00680213
-0.00591279
-0.00615325
-0.00603381
-0.00606597
-0.00551996
-0.00541633
-0.0051582
-0.00476964
-0.0050062
-0.00518919
-0.00477767
-0.00573181
-0.00532782
-0.00583986
-0.00578768
-0.00506867
-0.00495634
-0.0049297
-0.0046365
-0.00443053
-0.00406897
-0.00447761
-0.00448854
-0.00482788
-0.00379753
-0.00434389
-0.00390176
-0.00360638
-0.00320827
-0.00371061
-0.00369675
-0.00444755
-0.00466093
-0.00453885
-0.00411223
-0.00410098
-0.00393016
-0.00369337
-0.0034861
-0.00331224
-0.00315557
-0.00268282
-0.00424387
-0.00393108
-0.00424788
-0.00391271
-0.00373538
-0.00319688
-0.00350361
-0.00261457
-0.00685907
-0.00703415
-0.0066049
-0.00686384
-0.00703981
-0.00641163
-0.00626647
-0.00544067
-0.00443459
-0.00400079
-0.00295788
-0.00330337
-0.00230672
-0.00208706
-0.00713568
-0.00733379
-0.00670033
-0.00710447
-0.00730959
-0.00660287
-0.00646535
-0.00557529
-0.00424074
-0.00338969
-0.0024697
-0.00305843
-0.00170548
-0.00202371
-0.00155563
-0.00636145
-0.00659531
-0.00676248
-0.006648
-0.00696118
-0.00681501
-0.00648516
-0.00657366
-0.00677682
-0.00621102
-0.00645487
-0.00655101
-0.00538493
-0.00564157
-0.00537133
-0.00563723
-0.0059025
-0.00573223
-0.00595282
-0.00609816
-0.00571242
-0.00595352
-0.00634323
-0.0061324
-0.00623643
-0.00643055
-0.00400065
-0.00447218
-0.00392577
-0.0037428
-0.00424295
-0.00464148
-0.00445057
-0.0047403
-0.00477639
-0.00521054
-0.00490973
-0.00496391
-0.00519694
-0.00495028
-0.00530861
-0.003533
-0.00409546
-0.00468557
-0.00536244
-0.00316567
-0.00372275
-0.0043475
-0.00502069
-0.00576499
-0.00381708
-0.00352441
-0.00375019
-0.00363176
-0.00330237
-0.00323776
-0.00301075
-0.00249803
-0.00323708
-0.00211049
-0.00298534
-0.0014718
-0.00213862
-0.00251698
-0.00620459
-0.00618186
-0.00609624
-0.00600818
-0.00605715
-0.00492072
-0.00506191
-0.00422524
-0.00456439
-0.00470558
-0.00482893
-0.00565167
-0.00533038
-0.00535444
-0.00572401
-0.00526278
-0.0050584
-0.00482577
-0.004779
-0.00588712
-0.00591234
-0.00595146
-0.00535444
-0.00535444
-0.00493206
-0.00577681
-0.00469662
-0.00503612
-0.00517448
-0.00544795
-0.00576722
-0.00592118
-0.00573551
-0.00634116
-0.00646252
-0.00618095
-0.00628719
-0.00591155
-0.00672123
-0.00683337
-0.00702778
-0.00636723
-0.00658607
-0.0068476
-0.00684747
-0.00703525
-0.00586063
-0.00609902
-0.00614003
-0.00605605
-0.0063799
-0.00547475
-0.00574301
-0.0052638
-0.00563469
-0.00458777
-0.00486837
-0.00518885
-0.00503592
-0.00588122
-0.00579671
-0.00553437
-0.00590476
-0.00582907
-0.00621991
-0.0054024
-0.00498707
-0.00440719
-0.00477643
-0.00430853
-0.00406528
-0.00398048
-0.00445239
-0.00444694
-0.00496997
-0.00464602
-0.00374733
-0.00405454
-0.00326245
-0.00295034
-0.00362014
-0.00329199
-0.00445093
-0.00430544
-0.00465776
-0.00448324
-0.00441567
-0.00388417
-0.00412842
-0.00375058
-0.00387938
-0.00346396
-0.00369334
-0.00318034
-0.00307696
-0.00286779
-0.00264619
-0.00230011
-0.0039662
-0.00378079
-0.00433025
-0.00403944
-0.00386211
-0.00357
-0.00301984
-0.00327627
-0.00329734
-0.00269006
-0.0020852
-0.00711328
-0.00732216
-0.0066814
-0.00708792
-0.00730074
-0.00657389
-0.00642754
-0.00554397
-0.00421972
-0.00337822
-0.00246558
-0.00305028
-0.00170396
-0.00202129
-0.00155534
-0.00736068
-0.00719357
-0.00756368
-0.00703063
-0.00731874
-0.00753753
-0.0070146
-0.00612381
-0.0069344
-0.00530345
-0.00468578
-0.00342855
-0.00300911
-0.00250468
-0.00126602
-0.00145855
-0.000995807
-0.00649168
-0.00673082
-0.00661592
-0.00693105
-0.00678627
-0.00710843
-0.00696381
-0.00637567
-0.00653213
-0.00674434
-0.00686159
-0.00641028
-0.00651351
-0.00675142
-0.0054795
-0.00564476
-0.00539604
-0.00554118
-0.00563092
-0.00588402
-0.00581739
-0.00587227
-0.00596688
-0.00628284
-0.00606946
-0.00618377
-0.00638188
-0.00615201
-0.00635882
-0.00666477
-0.00397174
-0.00430086
-0.00366833
-0.00389686
-0.0034935
-0.00420638
-0.0040421
-0.00447016
-0.00445859
-0.00472509
-0.00461597
-0.00466844
-0.00514908
-0.00495393
-0.00502097
-0.00474734
-0.00513722
-0.00500735
-0.00520792
-0.00527284
-0.00314352
-0.00369114
-0.00430547
-0.00496553
-0.0056977
-0.00288683
-0.00339259
-0.00418862
-0.00498338
-0.00574373
-0.00362409
-0.00347995
-0.00377771
-0.00338102
-0.0031202
-0.00274054
-0.00315401
-0.0024835
-0.0020991
-0.00295818
-0.00147003
-0.00213028
-0.00250434
-0.00109223
-0.00154565
-0.00225104
-0.00638077
-0.00635901
-0.00605464
-0.00608691
-0.0047324
-0.00487359
-0.00407702
-0.00423856
-0.00441156
-0.00466431
-0.00533854
-0.00557637
-0.0051221
-0.00578991
-0.00574979
-0.00495072
-0.0054446
-0.0048233
-0.00490237
-0.00498209
-0.00466869
-0.00461438
-0.00611647
-0.00614169
-0.00608699
-0.00536259
-0.0050084
-0.00574473
-0.00547332
-0.00575451
-0.00504409
-0.00547332
-0.00477498
-0.00482007
-0.00591939
-0.00594284
-0.00593305
-0.00479348
-0.0053563
-0.00493738
-0.00542716
-0.00571297
-0.00601989
-0.005848
-0.00655585
-0.00621864
-0.00641373
-0.00666525
-0.00627335
-0.00612408
-0.00646992
-0.00591699
-0.00672157
-0.00707968
-0.00701752
-0.00730471
-0.00646363
-0.00658213
-0.00665301
-0.00687017
-0.00686478
-0.00706311
-0.00728745
-0.00604685
-0.00607326
-0.00634965
-0.00631125
-0.00653043
-0.00569311
-0.0053664
-0.00579937
-0.00521968
-0.00574718
-0.0046865
-0.00446563
-0.00503557
-0.00511668
-0.00601283
-0.00601668
-0.0056027
-0.00575434
-0.00622044
-0.00614474
-0.00631422
-0.00637085
-0.00531455
-0.005497
-0.00479555
-0.00430727
-0.00418819
-0.00469824
-0.00443632
-0.00402009
-0.00399906
-0.00377684
-0.00336103
-0.0042331
-0.00479548
-0.00459818
-0.00378237
-0.00398536
-0.00306143
-0.0024594
-0.0033149
-0.00303804
-0.00430882
-0.0044085
-0.00436006
-0.00390036
-0.00413049
-0.0036998
-0.00348824
-0.00365418
-0.00311282
-0.00300062
-0.00320428
-0.00285287
-0.00325128
-0.00283566
-0.00263127
-0.00235702
-0.0017017
-0.00389766
-0.00373192
-0.00411725
-0.0039632
-0.00378587
-0.00360505
-0.00315931
-0.00302712
-0.00315007
-0.00347357
-0.00273004
-0.00250912
-0.0020785
-0.00201765
-0.00155491
-0.00733938
-0.00716227
-0.0075562
-0.00700795
-0.00730157
-0.0075315
-0.00698083
-0.00608634
-0.00689173
-0.005272
-0.00465892
-0.00341229
-0.00299778
-0.00249883
-0.00126554
-0.00145707
-0.000995692
-0.00761506
-0.00741808
-0.00788508
-0.0071831
-0.00757275
-0.0077556
-0.00718162
-0.00619505
-0.00705211
-0.0057101
-0.00447449
-0.00309696
-0.00224193
-0.00206026
-0.000598769
-0.00146615
-0.000961748
-0.000474547
-0.00661987
-0.00688585
-0.00647092
-0.00674316
-0.00707342
-0.00693016
-0.00726185
-0.00709977
-0.00640492
-0.0066956
-0.00682044
-0.0070363
-0.00631257
-0.00645727
-0.0067075
-0.00681904
-0.00548766
-0.00524866
-0.00563279
-0.0053938
-0.00544591
-0.0059751
-0.00579727
-0.00610482
-0.00601401
-0.00621217
-0.00630889
-0.00608307
-0.00629775
-0.00660962
-0.00648767
-0.00664419
-0.0038157
-0.0041412
-0.00414481
-0.00348106
-0.00360575
-0.00406631
-0.00311034
-0.00364377
-0.00405155
-0.00395583
-0.00424248
-0.00447818
-0.00461183
-0.00419891
-0.00455863
-0.00446826
-0.00488285
-0.00472377
-0.00507281
-0.00480441
-0.00472115
-0.00515864
-0.00518966
-0.00559684
-0.00286589
-0.00336202
-0.0041424
-0.00492316
-0.00567077
-0.00245795
-0.00295388
-0.00336134
-0.0037272
-0.00453213
-0.00536262
-0.00607508
-0.00340116
-0.00350747
-0.00326346
-0.002683
-0.00271503
-0.00294493
-0.00227841
-0.00242597
-0.00206841
-0.00146736
-0.00211778
-0.00248539
-0.00109415
-0.00154367
-0.00224023
-0.00114587
-0.000540547
-0.00142413
-0.0017561
-0.00650258
-0.0062803
-0.0045661
-0.00409034
-0.00430349
-0.00435479
-0.00518425
-0.00542034
-0.00582042
-0.0051221
-0.00577189
-0.00603396
-0.00573177
-0.00597695
-0.00495072
-0.00479164
-0.00542658
-0.004747
-0.00466727
-0.00482606
-0.0043676
-0.00456464
-0.00431329
-0.00640482
-0.00617219
-0.0061974
-0.00631634
-0.00612582
-0.00556169
-0.00520831
-0.00496119
-0.00520529
-0.00578559
-0.00578779
-0.00579538
-0.0049266
-0.00480899
-0.00535254
-0.00456253
-0.00460762
-0.00459529
-0.00615262
-0.00618576
-0.00602767
-0.00463007
-0.00478639
-0.00519395
-0.00483563
-0.00569218
-0.00545751
-0.00594013
-0.006089
-0.00612477
-0.0065592
-0.00636317
-0.00655339
-0.00672133
-0.00621648
-0.00610321
-0.00677765
-0.00709773
-0.00730742
-0.0071153
-0.00721977
-0.00733644
-0.00754496
-0.00658868
-0.00662335
-0.00675123
-0.00697395
-0.00702271
-0.00685115
-0.00702121
-0.00727583
-0.00732886
-0.00752243
-0.00620486
-0.00645684
-0.00635343
-0.00641074
-0.00654512
-0.00693021
-0.00586292
-0.00554969
-0.00596919
-0.00530959
-0.00598122
-0.00441002
-0.00511634
-0.00608338
-0.00628802
-0.00570694
-0.00571073
-0.00581425
-0.00624818
-0.00641766
-0.00636466
-0.00603015
-0.00682778
-0.00537076
-0.00551044
-0.00522484
-0.00452691
-0.00471329
-0.0049541
-0.00418052
-0.00410625
-0.00414278
-0.00461863
-0.00338791
-0.00485485
-0.00445136
-0.00420375
-0.00391765
-0.00368629
-0.0036744
-0.00333968
-0.00298079
-0.00428644
-0.00480821
-0.00468071
-0.0046109
-0.00383944
-0.00283727
-0.00248033
-0.00249005
-0.00324698
-0.00306771
-0.00422111
-0.00410079
-0.00427542
-0.00411972
-0.00386935
-0.00380912
-0.00399389
-0.00373402
-0.00347087
-0.00297469
-0.00297479
-0.00268835
-0.00302455
-0.00297979
-0.00272938
-0.00318756
-0.00327953
-0.00277972
-0.00233637
-0.00213244
-0.00175285
-0.00126482
-0.00378901
-0.00401229
-0.00343924
-0.00316659
-0.00274232
-0.00285651
-0.00355917
-0.00354762
-0.0025491
-0.00229631
-0.00168181
-0.00202688
-0.00145485
-0.000995519
-0.00758513
-0.00738234
-0.00786379
-0.00715348
-0.0075466
-0.00773931
-0.00714101
-0.00615453
-0.00700469
-0.00567278
-0.00444381
-0.00308032
-0.00223491
-0.00205551
-0.000599802
-0.00146404
-0.000961653
-0.000474726
-0.0076217
-0.00791241
-0.00747087
-0.00811118
-0.00750937
-0.00778736
-0.00800509
-0.00755197
-0.00665561
-0.00752691
-0.00567763
-0.00369945
-0.00503848
-0.0022397
-0.00165093
-0.000112639
-0.000853923
-0.0005106
-3.52036e-05
-0.00673134
-0.00702088
-0.00687967
-0.00656285
-0.00722005
-0.00705697
-0.00725042
-0.0073983
-0.00652575
-0.00675872
-0.00698981
-0.00712382
-0.00634322
-0.00664161
-0.00676583
-0.00701629
-0.0054074
-0.00545306
-0.00585556
-0.00597972
-0.00620617
-0.00596042
-0.00622583
-0.00652691
-0.00641188
-0.00658096
-0.00684082
-0.00643108
-0.00686728
-0.00398515
-0.00358903
-0.0040452
-0.00316376
-0.00344739
-0.00367572
-0.00391148
-0.00296236
-0.00283451
-0.00352112
-0.00331621
-0.00366532
-0.00410267
-0.00407314
-0.00420928
-0.00444537
-0.00419265
-0.00403546
-0.00419214
-0.00454627
-0.00480081
-0.00483289
-0.0048667
-0.00452426
-0.00460789
-0.00479857
-0.0052691
-0.00542828
-0.00496861
-0.00556141
-0.0024428
-0.0029297
-0.00332844
-0.00368618
-0.00447648
-0.00529224
-0.00599354
-0.00221833
-0.00253432
-0.00274361
-0.0035242
-0.00441523
-0.00549358
-0.00596582
-0.0031281
-0.00339501
-0.0029904
-0.00262707
-0.00247174
-0.00266897
-0.00289888
-0.00200292
-0.00214059
-0.00179292
-0.00151461
-0.00109702
-0.00154071
-0.00222402
-0.00114832
-0.000548649
-0.00142428
-0.00175169
-0.000637711
-0.000126001
-0.000282604
-0.000881713
-0.00150995
-0.00646916
-0.00672496
-0.00640113
-0.00392692
-0.00414888
-0.00416689
-0.00428353
-0.00548034
-0.0055281
-0.00585016
-0.0049266
-0.00488806
-0.00592141
-0.00619725
-0.00588129
-0.00613298
-0.00487271
-0.00524476
-0.00464065
-0.00468989
-0.0055037
-0.00459097
-0.00426144
-0.00426355
-0.00657102
-0.00638197
-0.00644968
-0.00644735
-0.00636715
-0.00507492
-0.00492127
-0.00465839
-0.00516253
-0.00516537
-0.00588709
-0.00611631
-0.00595141
-0.00608318
-0.00582512
-0.00503816
-0.00469151
-0.00553832
-0.00455536
-0.00460044
-0.00438284
-0.0062393
-0.00638392
-0.00462298
-0.00520424
-0.00531595
-0.00491039
-0.00468586
-0.00583867
-0.0056923
-0.00609616
-0.00631356
-0.00620077
-0.00669314
-0.00666184
-0.00634455
-0.00647101
-0.0062745
-0.00616122
-0.00696985
-0.00718278
-0.00726726
-0.00754027
-0.00702848
-0.00732874
-0.00720241
-0.00731907
-0.00752186
-0.00783207
-0.00650631
-0.0067376
-0.00686593
-0.00690766
-0.00710908
-0.00707125
-0.00700165
-0.00711918
-0.00732556
-0.00750743
-0.00750706
-0.00738772
-0.00771492
-0.00655633
-0.00633702
-0.0068448
-0.00708013
-0.00582785
-0.00543256
-0.00552162
-0.00516803
-0.00596892
-0.00416968
-0.00600467
-0.00635549
-0.00643273
-0.00603675
-0.0056099
-0.00573033
-0.00614406
-0.00572492
-0.00675992
-0.00670332
-0.00609814
-0.00590801
-0.00609377
-0.00693361
-0.00520184
-0.00542667
-0.00527861
-0.00561682
-0.00432589
-0.00440016
-0.00467998
-0.00477996
-0.00484087
-0.00375496
-0.00379349
-0.00371722
-0.00430581
-0.00466946
-0.00439781
-0.00332748
-0.00305536
-0.00496933
-0.00432308
-0.00406722
-0.00429153
-0.00365008
-0.00344979
-0.00319032
-0.00322905
-0.00302532
-0.00222438
-0.00417524
-0.00409457
-0.00481849
-0.00495792
-0.00479518
-0.00439551
-0.00349533
-0.0027151
-0.00291066
-0.00235816
-0.00244012
-0.00247437
-0.00204839
-0.00306691
-0.00277404
-0.00401308
-0.0040771
-0.00378163
-0.00379134
-0.00355071
-0.00357398
-0.00310115
-0.00269926
-0.00279385
-0.00255021
-0.00280006
-0.00310625
-0.00243879
-0.00268837
-0.00288975
-0.00331207
-0.00321581
-0.00233597
-0.00200266
-0.00151899
-0.00162361
-0.00126016
-0.000601353
-0.00401695
-0.00337867
-0.00336734
-0.00288179
-0.00259617
-0.0029299
-0.00342875
-0.00350581
-0.00348053
-0.00245451
-0.00199853
-0.00233252
-0.00154613
-0.00166215
-0.00223592
-0.00178591
-0.00149984
-0.00146087
-0.000961511
-0.000934164
-0.000474995
-0.00758607
-0.00787807
-0.00743113
-0.00808588
-0.00747677
-0.00775916
-0.00798325
-0.00750724
-0.00661004
-0.00747358
-0.00563896
-0.00367428
-0.00500183
-0.00222993
-0.00164696
-0.000117215
-0.000854186
-0.000511342
-3.58595e-05
-0.00780199
-0.00813706
-0.00770067
-0.00830157
-0.00771376
-0.00807994
-0.00819813
-0.00778068
-0.00670729
-0.0076965
-0.00621352
-0.00333297
-0.00511819
-0.00160649
-0.00190256
-0.000862989
0.000463656
-0.000387234
-0.000100645
0.000414693
-0.00688034
-0.00715733
-0.00699275
-0.00720431
-0.00735608
-0.00735692
-0.00753083
-0.00656733
-0.00692006
-0.00706708
-0.00729057
-0.00647714
-0.00668601
-0.00695579
-0.00708469
-0.0053928
-0.00560749
-0.00585619
-0.0057953
-0.00629825
-0.00648613
-0.00676377
-0.00634834
-0.0067968
-0.00708016
-0.00672002
-0.00388555
-0.00364979
-0.00403595
-0.0031301
-0.003651
-0.00388676
-0.00275743
-0.00242011
-0.00289347
-0.00327728
-0.00327913
-0.00340509
-0.00392243
-0.0039462
-0.00362472
-0.00439308
-0.00420003
-0.0040292
-0.0040119
-0.00471406
-0.00440523
-0.00465977
-0.00466321
-0.00518676
-0.00484476
-0.00461823
-0.00462297
-0.00479026
-0.00542352
-0.00508361
-0.00539761
-0.00555168
-0.00482757
-0.00587131
-0.00220492
-0.00251509
-0.00271865
-0.0034809
-0.00435582
-0.00541327
-0.00587781
-0.00176765
-0.00235104
-0.00252873
-0.0038697
-0.00294394
-0.00475002
-0.00525733
-0.00626073
-0.00309444
-0.00230351
-0.00242569
-0.00216583
-0.00157091
-0.00142179
-0.0012926
-0.0010829
-0.00115197
-0.000560796
-0.0014245
-0.00230711
-0.00174508
-0.000646534
-0.000135476
-0.000294736
-0.000888658
-0.00150836
-0.000492675
0.000495522
0.000228705
-0.000749177
-0.00105006
-0.00669154
-0.00398545
-0.00420369
-0.00408923
-0.00555746
-0.00534142
-0.00561398
-0.00609147
-0.00453653
-0.00503816
-0.00449799
-0.00609747
-0.00578499
-0.00618925
-0.00638362
-0.00574487
-0.00605534
-0.00632599
-0.00518387
-0.00441826
-0.00477096
-0.00532188
-0.00447724
-0.00454011
-0.00536569
-0.00440042
-0.00411921
-0.00411391
-0.00417564
-0.00410631
-0.00680365
-0.00649245
-0.0066146
-0.00652498
-0.0066571
-0.00664452
-0.00645619
-0.00641129
-0.00514649
-0.00510482
-0.00462147
-0.00443661
-0.00484815
-0.00512261
-0.00553489
-0.00621781
-0.00600983
-0.00616985
-0.00633023
-0.00603425
-0.00443897
-0.00574745
-0.00430282
-0.00436757
-0.00416404
-0.00651581
-0.00650419
-0.00492067
-0.00532624
-0.00601549
-0.00575881
-0.00571223
-0.00629494
-0.00663974
-0.00652314
-0.00676331
-0.00630182
-0.0070549
-0.00736245
-0.00709205
-0.00740129
-0.00752353
-0.00753264
-0.00782663
-0.00684786
-0.00712382
-0.0072785
-0.00737151
-0.00732921
-0.0074531
-0.0076404
-0.00780069
-0.0080483
-0.00664593
-0.00688927
-0.00696507
-0.0070068
-0.00711917
-0.00742793
-0.00726112
-0.00714907
-0.00704413
-0.007265
-0.00716166
-0.00749671
-0.00771692
-0.00764793
-0.00758931
-0.00795063
-0.00682198
-0.00660267
-0.00695617
-0.00697607
-0.00709182
-0.0074402
-0.00591593
-0.00545216
-0.00558813
-0.00517832
-0.00614574
-0.00424399
-0.0061803
-0.00657822
-0.00662037
-0.00593971
-0.00556117
-0.00602427
-0.00628877
-0.00609688
-0.00689558
-0.00681318
-0.00680727
-0.00613277
-0.00594264
-0.00603937
-0.00654171
-0.00695039
-0.00739366
-0.00540066
-0.00530471
-0.00570885
-0.00507872
-0.00555523
-0.00568486
-0.00558098
-0.00419761
-0.00449466
-0.00428692
-0.0047794
-0.00441086
-0.00466672
-0.00500037
-0.00509632
-0.003918
-0.00356895
-0.00386155
-0.00388025
-0.00451318
-0.00450157
-0.00363654
-0.00494688
-0.00307802
-0.00221529
-0.00525042
-0.0037568
-0.004155
-0.00342546
-0.00326971
-0.00289665
-0.00289672
-0.002693
-0.00227569
-0.001641
-0.00388007
-0.00375046
-0.00492024
-0.00447254
-0.0049682
-0.00460526
-0.00439551
-0.00424687
-0.00327956
-0.00278849
-0.00267042
-0.00231796
-0.0021468
-0.00282667
-0.00373013
-0.0036482
-0.00343385
-0.00304778
-0.00262108
-0.00263649
-0.00298451
-0.00239778
-0.0023323
-0.00286537
-0.00291799
-0.00301426
-0.00348271
-0.0033257
-0.00231766
-0.00200279
-0.00216557
-0.00168062
-0.00129797
-0.00133934
-0.000911026
-0.000579942
-0.000124076
-0.00385534
-0.00418294
-0.00331158
-0.00332472
-0.00315157
-0.00296211
-0.00264216
-0.00288248
-0.00337539
-0.00365649
-0.00335312
-0.00362723
-0.00211675
-0.00186285
-0.00209156
-0.00152646
-0.00122102
-0.00199496
-0.00119592
-0.00147138
-0.00143787
-0.00085458
-0.000909059
-0.000512457
-0.000721899
-0.000512507
-3.68446e-05
-0.00776217
-0.0080957
-0.00766014
-0.00825993
-0.00767285
-0.00804207
-0.00816146
-0.00772791
-0.00665905
-0.00763793
-0.00616899
-0.00330824
-0.00507821
-0.00160273
-0.0018948
-0.000863569
0.000460095
-0.000389051
-0.000101867
0.000414219
-0.00802181
-0.00829943
-0.00780351
-0.0083252
-0.00831846
-0.00810825
-0.00824277
-0.00826781
-0.00819626
-0.00727281
-0.00822257
-0.00630836
-0.00239495
-0.00378252
-0.00584946
-0.00461751
-0.000747034
-0.00100639
-0.000199663
0.00084853
0.000109363
0.000255654
0.00072492
-0.00687886
-0.00704897
-0.00713513
-0.00729272
-0.00685983
-0.00730522
-0.00748567
-0.0074999
-0.007653
-0.00698197
-0.00723193
-0.0073895
-0.00686505
-0.00701494
-0.00728767
-0.00554722
-0.00609006
-0.00585372
-0.00664822
-0.00622428
-0.00634055
-0.00669112
-0.00699659
-0.00662948
-0.00731809
-0.0070179
-0.00665808
-0.00371123
-0.00289253
-0.00356358
-0.00245054
-0.00218484
-0.00296598
-0.00248627
-0.00317675
-0.00336043
-0.00268125
-0.00332807
-0.00351536
-0.00407751
-0.00361254
-0.00341601
-0.0043392
-0.00426679
-0.00411943
-0.00379308
-0.00414698
-0.00375416
-0.00457302
-0.00492349
-0.00529291
-0.00439645
-0.00474859
-0.00524532
-0.00504194
-0.00501795
-0.00541412
-0.00560635
-0.00565834
-0.00574589
-0.00176135
-0.00233331
-0.00250555
-0.00381739
-0.00291054
-0.00467661
-0.00517263
-0.00616283
-0.00150458
-0.00177767
-0.00177332
-0.00352549
-0.00289197
-0.00445642
-0.00561874
-0.00614777
-0.00204725
-0.00148535
-0.00125122
-0.00119982
-0.00071548
-0.000659747
-0.000457734
-0.000149685
-0.000312902
-0.000899062
-0.00172099
-0.00150597
-0.000503875
0.000480153
0.000210597
-0.000757986
-0.00105487
4.42086e-05
0.000894089
0.000590819
0.000408271
-0.000300068
-0.000792674
-0.00397868
-0.00558334
-0.00543613
-0.00556476
-0.0059333
-0.00619021
-0.0044568
-0.00428399
-0.00480411
-0.00424545
-0.00596105
-0.00618759
-0.00637563
-0.00606159
-0.00654859
-0.00580861
-0.00596553
-0.00641089
-0.00641503
-0.00535354
-0.00447254
-0.00387852
-0.00441826
-0.00558107
-0.00395444
-0.00390237
-0.00401167
-0.00394989
-0.00672508
-0.00671349
-0.00651443
-0.0067324
-0.00682651
-0.00681281
-0.00650033
-0.0053082
-0.00437323
-0.00415471
-0.00468198
-0.00537616
-0.00475955
-0.00559843
-0.00549416
-0.00636597
-0.00641691
-0.00625156
-0.0066176
-0.00615804
-0.00570323
-0.00572327
-0.00422702
-0.00441385
-0.00415594
-0.00395418
-0.00673373
-0.0055343
-0.0059625
-0.00577874
-0.00675833
-0.00655844
-0.00696417
-0.00670263
-0.00643716
-0.00742445
-0.00748469
-0.00718739
-0.00769199
-0.00746518
-0.00770246
-0.00783486
-0.00803369
-0.00684638
-0.0070307
-0.00734207
-0.00730822
-0.00759936
-0.00745602
-0.00758901
-0.00772532
-0.00784853
-0.00788561
-0.00798416
-0.00819786
-0.00687997
-0.00664593
-0.00735829
-0.00761154
-0.00733895
-0.0071482
-0.00730748
-0.00765106
-0.00743732
-0.00798539
-0.0076667
-0.00810676
-0.00685441
-0.00691473
-0.00660267
-0.00711892
-0.00711801
-0.0073593
-0.00764882
-0.00609275
-0.00563579
-0.00568151
-0.00538638
-0.00620306
-0.00606999
-0.00656052
-0.00600549
-0.0058136
-0.0062126
-0.00591396
-0.00624726
-0.00605536
-0.00699952
-0.00679549
-0.00704284
-0.00668345
-0.00604854
-0.00640406
-0.00602815
-0.00637263
-0.00658674
-0.00726852
-0.00682658
-0.00744456
-0.00755013
-0.00553858
-0.00550353
-0.00579437
-0.00570709
-0.00492243
-0.00519876
-0.00547469
-0.00565687
-0.00610224
-0.00428539
-0.00438142
-0.00506049
-0.00435426
-0.00476615
-0.00519919
-0.00507821
-0.0040125
-0.00373198
-0.00394933
-0.00381097
-0.00434528
-0.00486709
-0.00355952
-0.00327114
-0.00503899
-0.00501825
-0.00330186
-0.00273069
-0.00209303
-0.00159708
-0.00188316
-0.00543405
-0.00368855
-0.003968
-0.00324539
-0.00294928
-0.00299876
-0.00250691
-0.00208961
-0.00171521
-0.000864439
-0.00358232
-0.00389004
-0.00376043
-0.00441826
-0.00518005
-0.00441826
-0.00424687
-0.0030845
-0.00254826
-0.00218419
-0.00197878
-0.00356884
-0.00372451
-0.00350807
-0.0030017
-0.00284314
-0.00279599
-0.00229012
-0.00256403
-0.00265114
-0.00321038
-0.002781
-0.00233089
-0.00198734
-0.00266506
-0.00302788
-0.00318489
-0.00346809
-0.00198448
-0.00209869
-0.00151005
-0.00135556
-0.000954572
-0.000887787
-0.00138584
-0.000968616
-0.000270956
-0.000400908
-3.48506e-05
0.000454757
-0.00402133
-0.00371588
-0.00308154
-0.00286863
-0.00250283
-0.00285507
-0.00275952
-0.00344428
-0.00350379
-0.00371827
-0.00301805
-0.00362821
-0.00203054
-0.00168059
-0.0019093
-0.00117181
-0.00100876
-0.00198343
-0.00100895
-0.00174592
-0.0011632
-0.0011297
-0.00171241
-0.000819951
-0.000391774
-0.000567821
-0.000103701
-0.000484472
-0.000414511
-0.000275079
-4.06761e-05
0.000413507
-0.00798086
-0.00825496
-0.00776192
-0.00828259
-0.00827206
-0.00806232
-0.00820179
-0.00822302
-0.00813829
-0.00721752
-0.00815625
-0.006261
-0.00238065
-0.00375049
-0.00580454
-0.00457815
-0.000750377
-0.0010082
-0.000204817
0.000841055
0.000106342
0.000253339
0.000723677
-0.00816543
-0.00831873
-0.00774729
-0.00804785
-0.00836426
-0.00835362
-0.0083625
-0.0083899
-0.00847897
-0.00846933
-0.00733679
-0.00850704
-0.00686845
-0.00199049
-0.0034449
-0.00602442
-0.00500278
-0.000132665
-0.000471215
-0.000577393
0.000390265
0.00120466
0.000424523
0.000629309
0.00112762
-0.00692844
-0.00705311
-0.00697814
-0.00722766
-0.00719476
-0.00741791
-0.00744946
-0.00760913
-0.00759394
-0.00776841
-0.00682396
-0.00714396
-0.00732517
-0.00754931
-0.00691033
-0.00721602
-0.00739432
-0.00614786
-0.00596337
-0.00645213
-0.00687129
-0.00606656
-0.00649375
-0.00648871
-0.00723361
-0.00692776
-0.00655875
-0.00746705
-0.00724323
-0.0069267
-0.00380568
-0.00265656
-0.00326454
-0.00234175
-0.00204797
-0.00175192
-0.00286546
-0.00240732
-0.00230676
-0.00328702
-0.00304432
-0.00263166
-0.00247082
-0.00336895
-0.00302904