/*--------------------------------*- C++ -*----------------------------------*\
  =========                 |
  \\      /  F ield         | OpenFOAM: The Open Source CFD Toolbox
   \\    /   O peration     | Website:  https://openfoam.org
    \\  /    A nd           | Version:  10
     \\/     M anipulation  |
\*---------------------------------------------------------------------------*/
FoamFile
{
    format      ascii;
    class       volScalarField;
    location    "32";
    object      nut;
}
// * * * * * * * * * * * * * * * * * * * * * * * * * * * * * * * * * * * * * //

dimensions      [0 2 -1 0 0 0 0];

internalField   nonuniform List<scalar> 
143879
(
8.56809e-08
2.41785e-07
1.52387e-07
6.17952e-08
1.20127e-07
1.6625e-07
2.34573e-07
1.89312e-07
9.23878e-08
2.10072e-07
5.10409e-08
5.53447e-08
1.02021e-07
1.60725e-07
2.50416e-07
4.19791e-07
2.37178e-07
4.74351e-07
2.14952e-07
1.0938e-07
2.39121e-07
7.43256e-08
1.41145e-07
2.40494e-07
6.7932e-07
9.28787e-08
8.28337e-08
1.56182e-07
1.56912e-07
2.6338e-07
1.57959e-07
2.3417e-07
1.4428e-07
5.2867e-07
6.7285e-07
4.22587e-07
6.81009e-07
9.56055e-08
1.22529e-07
3.09723e-07
9.74979e-08
1.71511e-07
2.09067e-07
2.19404e-07
9.58643e-07
3.05208e-07
2.32754e-07
4.51132e-07
2.10372e-07
5.02091e-07
1.01048e-06
1.67239e-07
3.56198e-07
2.50408e-07
1.40844e-07
3.21968e-07
1.28765e-07
3.42396e-07
2.75774e-07
9.98637e-08
3.28257e-07
3.97945e-07
3.12069e-07
3.67954e-07
2.8477e-07
6.68863e-07
6.96098e-07
9.00421e-07
5.6246e-07
8.86564e-07
1.82881e-07
7.00518e-08
8.44274e-08
1.85369e-07
2.87814e-07
4.74297e-07
4.8651e-07
2.53644e-07
3.54882e-07
2.13861e-07
1.91013e-07
2.69944e-06
2.87967e-06
6.76738e-07
3.96566e-07
2.44091e-07
5.8525e-07
3.37619e-07
1.64012e-06
1.09514e-06
1.25661e-06
9.81606e-07
2.06252e-07
3.61834e-07
3.55919e-07
3.2385e-07
2.56525e-07
7.65526e-08
2.43957e-07
3.76282e-07
3.2156e-07
4.65004e-07
1.89001e-07
2.99042e-07
1.49289e-06
3.3927e-07
3.05733e-07
5.16654e-07
1.62926e-07
4.20931e-07
4.54045e-07
5.85677e-07
2.99582e-07
5.78264e-07
2.78452e-07
5.36071e-07
9.33635e-07
1.01813e-06
1.01327e-06
1.08486e-06
9.20998e-07
1.26093e-06
2.62639e-07
1.12496e-07
4.19585e-07
6.12925e-08
4.59522e-07
2.86022e-07
2.36209e-07
3.994e-07
4.37825e-07
8.91883e-07
1.13639e-06
3.64967e-07
4.4158e-07
3.09215e-07
1.9265e-07
4.43132e-07
3.15689e-06
2.18016e-06
3.33342e-06
3.17458e-06
3.03896e-06
1.30843e-06
8.14361e-07
5.29181e-07
3.66137e-07
6.70998e-07
4.25023e-07
9.79933e-07
1.22998e-06
9.81475e-07
1.46952e-06
1.97393e-07
4.82444e-07
3.4555e-07
6.01589e-07
3.19591e-07
3.51223e-07
5.90749e-07
1.17627e-07
6.5785e-07
3.95119e-07
5.92017e-07
3.68615e-07
5.70686e-07
6.18412e-07
3.86347e-07
3.97436e-07
6.98743e-07
3.52021e-07
3.2003e-07
7.19812e-07
3.46581e-07
7.90253e-07
3.61902e-07
4.1249e-07
7.2427e-07
1.59276e-07
3.33336e-07
6.69003e-07
7.40263e-07
6.26367e-07
7.31385e-07
6.11557e-07
6.47367e-07
2.84092e-07
5.23449e-07
6.82476e-07
9.84169e-07
1.10036e-06
1.15955e-06
1.25905e-06
1.2649e-06
9.21531e-07
1.36804e-06
1.91491e-07
1.38314e-07
4.68684e-07
9.39416e-08
2.06795e-07
5.21737e-07
9.03291e-07
6.07991e-07
3.34132e-07
5.49841e-07
4.43592e-07
4.50645e-07
6.4823e-07
3.18062e-06
1.09671e-06
2.40387e-06
1.12137e-06
4.81188e-07
5.8922e-07
6.88567e-07
4.21639e-07
4.59436e-07
6.50858e-07
2.05189e-06
2.78935e-06
4.23143e-06
3.78756e-06
1.41512e-06
4.2514e-06
4.43165e-06
2.04886e-06
1.13845e-06
1.06982e-06
4.56265e-07
6.46776e-07
5.68601e-07
8.7203e-07
7.64644e-07
1.25148e-06
1.34929e-06
7.72629e-07
1.02567e-06
1.42427e-06
1.34344e-06
4.5498e-07
4.29383e-07
6.55069e-07
3.36218e-07
3.74568e-07
3.86708e-07
5.29719e-07
9.0228e-07
1.48705e-07
4.16924e-07
8.89264e-07
5.8859e-07
3.88355e-07
6.61652e-07
4.51509e-07
4.32485e-07
1.18838e-06
1.01472e-06
3.88857e-07
4.40645e-07
4.22801e-07
7.39322e-07
8.6585e-07
1.11402e-06
3.2429e-07
3.29585e-07
3.58675e-07
1.53767e-06
2.99663e-07
1.4253e-06
4.25433e-06
5.27964e-07
4.11396e-07
4.3263e-07
4.5767e-07
7.8799e-07
1.4431e-07
2.89046e-07
4.12238e-07
8.27739e-07
8.64003e-07
7.9732e-07
8.94588e-07
9.55686e-07
5.32134e-07
9.7107e-07
4.56977e-07
6.29336e-07
5.69589e-07
8.6465e-07
1.13154e-06
1.26878e-06
1.3471e-06
1.43763e-06
1.38637e-06
1.12253e-06
1.58157e-06
1.18105e-07
5.96247e-07
1.06664e-07
2.21551e-07
6.70327e-07
2.28657e-07
2.50855e-07
6.40348e-07
1.65161e-06
9.24932e-07
1.32019e-06
5.5739e-07
3.42339e-07
4.17574e-07
6.30429e-07
5.53052e-07
5.87017e-07
4.02503e-06
3.77985e-06
1.3657e-06
1.59114e-06
1.90423e-06
1.91409e-06
1.80242e-06
7.69351e-07
9.56925e-07
1.02938e-06
4.96572e-07
6.64153e-07
6.94154e-07
9.5367e-07
3.99456e-06
1.93763e-06
3.70702e-06
3.65797e-06
4.16206e-06
4.92007e-06
5.06662e-06
3.60472e-06
1.40651e-06
1.56108e-06
6.12218e-07
6.40152e-07
5.80153e-07
8.32988e-07
8.46598e-07
1.21725e-06
1.35135e-06
8.24097e-07
9.62964e-07
6.29423e-07
2.00742e-06
7.54881e-07
4.28278e-07
3.58691e-07
7.77502e-07
5.1538e-07
3.74725e-07
4.76701e-07
3.79277e-07
5.09658e-07
5.39104e-07
1.27805e-06
7.51181e-07
1.60608e-06
1.48654e-07
4.53002e-07
7.26868e-07
7.00509e-07
7.54087e-07
1.21015e-06
5.92037e-07
5.12357e-07
4.13541e-07
5.77474e-07
5.43087e-07
6.33894e-07
1.56081e-06
1.21928e-06
6.37655e-07
9.22153e-07
4.39062e-07
4.90046e-07
4.58965e-07
4.24169e-07
4.51462e-07
1.05196e-06
1.08993e-06
5.86749e-07
3.91993e-07
3.48114e-07
3.93544e-07
3.78924e-07
4.0595e-07
7.1467e-07
6.19446e-07
4.68765e-07
8.44783e-07
4.2075e-07
4.30535e-07
4.23065e-07
4.39984e-07
4.78939e-07
9.67292e-07
2.37242e-07
3.82472e-07
3.49439e-07
6.9534e-07
1.13599e-06
1.12393e-06
1.05122e-06
9.41797e-07
1.03443e-06
8.36039e-07
8.76195e-07
7.4726e-07
4.21568e-07
7.51678e-07
6.86175e-07
3.43681e-07
8.97391e-07
1.10161e-06
1.26622e-06
1.44447e-06
1.46165e-06
1.54322e-06
1.52731e-06
8.35676e-07
1.56319e-06
1.11987e-07
2.64306e-07
5.87421e-07
7.23093e-07
2.97992e-07
2.46499e-07
7.35001e-07
2.74893e-07
3.36854e-07
6.92039e-07
1.75816e-06
1.3968e-06
1.02823e-06
1.94073e-06
1.12836e-06
9.3304e-07
5.17461e-07
5.25595e-07
7.92998e-07
6.18448e-07
7.11569e-07
4.06733e-06
3.71855e-06
1.99785e-06
2.47665e-06
2.71798e-06
2.06852e-06
1.67014e-06
2.58225e-06
2.4266e-06
9.64866e-07
1.22935e-06
1.30586e-06
1.47993e-06
8.25274e-07
8.63111e-07
9.24512e-07
1.13679e-06
8.86493e-07
2.14284e-06
4.47557e-06
4.96687e-06
3.08101e-06
6.24008e-06
4.75889e-06
1.96885e-06
2.67062e-06
9.01805e-07
4.95767e-07
6.58328e-07
1.05414e-06
1.15347e-06
6.50307e-07
1.01505e-06
1.16157e-06
1.01226e-06
8.88772e-07
6.80697e-07
5.64452e-07
7.48579e-07
4.18344e-07
3.48119e-07
4.26312e-07
8.53893e-07
6.61867e-07
4.5577e-07
6.00602e-07
4.87769e-07
4.10678e-07
4.96812e-07
5.20032e-07
6.16898e-07
5.4158e-07
5.75224e-07
1.05835e-06
1.29885e-06
7.91358e-07
2.27249e-06
5.71712e-07
7.35868e-07
1.16562e-06
8.33858e-07
9.12965e-07
1.55051e-06
9.24277e-07
5.81194e-07
5.10769e-07
5.25929e-07
4.39028e-07
5.14903e-07
5.2804e-07
4.91277e-07
6.455e-07
5.16622e-07
8.7393e-07
1.77398e-06
6.48459e-07
1.46803e-06
6.44923e-07
4.86824e-07
4.65138e-07
1.12793e-06
4.52468e-07
4.66102e-07
5.10435e-07
4.97473e-07
4.6116e-07
5.23476e-07
5.317e-07
9.57686e-07
5.27823e-07
1.13379e-06
4.01562e-07
3.73285e-07
4.30445e-07
4.07194e-07
6.4311e-07
5.96535e-07
4.72942e-07
4.63773e-07
1.09816e-06
4.35945e-06
7.30609e-07
4.29861e-07
4.30968e-07
4.31114e-07
4.55093e-07
4.65985e-07
5.21203e-07
4.7027e-07
1.01159e-06
2.42038e-07
3.06249e-07
5.24768e-07
6.67742e-07
4.80219e-07
8.29862e-07
1.29621e-06
1.18289e-06
1.18791e-06
1.15024e-06
1.09356e-06
1.09715e-06
1.96227e-06
1.12791e-06
5.31328e-07
5.44007e-07
8.06357e-07
7.58309e-07
5.63641e-07
9.66404e-07
1.15063e-06
1.36425e-06
1.57442e-06
1.6061e-06
1.63165e-06
1.59317e-06
1.21882e-06
1.646e-06
1.65961e-06
4.82511e-07
2.34656e-07
3.38319e-07
2.90145e-07
6.56742e-07
7.36863e-07
3.21112e-07
4.2601e-07
8.94945e-07
9.30912e-07
4.79297e-07
7.59999e-07
2.1499e-06
1.83514e-06
2.35861e-06
2.3071e-06
1.33281e-06
1.20422e-06
1.10336e-06
1.24179e-06
1.284e-06
1.03134e-06
6.65191e-07
9.72028e-07
7.71297e-07
7.8223e-07
5.12326e-06
2.50263e-06
4.04326e-06
2.53473e-06
3.78598e-06
2.72186e-06
5.63815e-06
2.79879e-06
1.36528e-06
1.90371e-06
9.39523e-07
3.5256e-06
2.54885e-06
3.72612e-06
3.53414e-06
1.32468e-06
2.06931e-06
2.64471e-06
2.30384e-06
9.66001e-07
1.08757e-06
9.81358e-07
1.14856e-06
1.20627e-06
6.12701e-06
6.60854e-06
6.5377e-06
3.65128e-06
8.29701e-06
6.67275e-06
7.0129e-06
6.61555e-06
2.5977e-06
2.95678e-06
1.21477e-06
7.13704e-07
5.31453e-07
7.00368e-07
6.24433e-07
5.21654e-07
9.12653e-07
7.18858e-07
1.00443e-06
6.67456e-07
6.59086e-07
6.83253e-07
3.73694e-07
3.62196e-07
4.19585e-07
1.20273e-06
1.03039e-06
6.77923e-07
6.31039e-07
7.11658e-07
7.67137e-07
4.55254e-07
5.01701e-07
5.12548e-07
4.31881e-07
5.71937e-07
4.87306e-07
6.18443e-07
4.64326e-07
4.83613e-07
4.70176e-07
5.30741e-07
7.0904e-07
6.18467e-07
5.49208e-07
5.6436e-07
5.77356e-07
9.52556e-07
1.15605e-06
8.25114e-07
9.47757e-07
6.58958e-07
2.34839e-06
7.36027e-07
1.06291e-06
9.91355e-07
1.46344e-06
2.61474e-06
2.26172e-06
1.84716e-06
7.82087e-07
8.98121e-07
9.91804e-07
1.14537e-06
1.94559e-06
5.12367e-07
6.33218e-07
5.47934e-07
5.1867e-07
4.92687e-07
5.1092e-07
5.28692e-07
5.21868e-07
6.33309e-07
5.69008e-07
5.57448e-07
7.46447e-07
8.07295e-07
2.13249e-06
1.50092e-06
6.50277e-07
1.17434e-06
5.25306e-07
5.46786e-07
6.23585e-07
1.20143e-06
4.53881e-07
4.64565e-07
6.29138e-07
5.88541e-07
4.95312e-07
5.43684e-07
5.37591e-07
1.05806e-06
5.31811e-07
1.05212e-06
4.54196e-07
4.09238e-07
3.78044e-07
4.50117e-07
4.55586e-07
4.26816e-07
4.06568e-07
4.03188e-07
6.27603e-07
1.18544e-06
4.50841e-07
4.75304e-07
1.23662e-06
2.20393e-06
1.02868e-06
4.90667e-06
4.56787e-07
4.284e-07
4.60572e-07
4.67229e-07
4.66283e-07
4.93304e-07
5.05778e-07
5.24176e-07
5.16645e-07
4.99166e-07
1.08508e-06
7.90483e-07
6.80621e-07
7.50954e-07
8.78892e-07
6.43212e-07
1.15408e-06
1.41853e-06
1.31586e-06
1.3089e-06
1.21125e-06
1.16914e-06
1.16915e-06
9.16341e-07
1.15265e-06
9.56468e-07
5.20802e-07
9.66733e-07
4.78336e-07
7.92146e-07
7.2428e-07
3.73367e-07
8.78083e-07
1.26114e-06
1.02875e-06
1.41765e-06
1.56205e-06
1.74937e-06
1.70425e-06
1.67068e-06
9.46144e-07
1.69755e-06
1.59747e-06
2.90977e-07
2.88431e-07
5.45259e-07
3.74379e-07
3.89826e-07
9.1671e-07
6.99203e-07
3.00302e-07
5.30149e-07
4.59026e-07
9.42949e-07
7.39334e-07
6.61827e-07
9.37416e-07
1.73044e-06
1.4349e-06
2.41692e-06
2.41793e-06
2.86975e-06
2.31045e-06
1.34928e-06
1.04387e-06
1.21239e-06
1.08118e-06
3.23139e-06
1.18316e-06
9.60562e-07
1.06568e-06
8.46035e-07
8.89278e-07
4.73489e-06
4.63113e-06
4.96591e-06
5.41255e-06
3.87505e-06
6.41252e-06
5.7343e-06
4.35756e-06
4.79369e-06
3.99213e-06
5.33954e-06
1.47112e-06
9.35095e-07
7.18172e-07
2.97493e-06
1.8306e-06
2.05558e-06
3.88516e-06
4.62874e-06
5.06889e-06
1.49146e-06
2.01164e-06
4.20927e-06
2.77239e-06
3.73455e-06
1.26001e-06
1.3593e-06
1.17631e-06
1.29943e-06
1.26171e-06
5.37649e-06
8.33432e-06
1.47733e-06
5.16575e-06
9.66916e-06
8.78143e-06
4.82893e-06
9.70527e-06
5.74019e-06
3.09407e-06
3.54452e-06
1.49165e-06
1.50701e-06
6.04802e-07
6.87646e-07
1.07635e-06
2.72612e-07
2.83276e-07
6.18726e-07
6.34023e-07
3.96588e-07
4.1039e-07
6.82967e-07
5.19055e-07
3.76441e-07
4.69839e-07
1.08502e-06
8.0889e-07
8.52539e-07
8.09177e-07
7.79934e-07
8.00493e-07
7.19147e-07
8.41052e-07
8.00522e-07
8.61196e-07
4.95643e-07
5.04976e-07
2.47897e-07
2.58234e-07
4.33866e-07
7.2488e-07
4.73034e-07
5.07954e-07
4.76514e-07
4.34737e-07
8.22189e-07
5.06925e-07
4.98068e-07
4.65248e-07
6.44114e-07
2.4358e-07
5.45794e-07
5.71418e-07
7.10809e-07
8.53045e-07
6.19993e-07
6.13403e-07
5.72481e-07
5.52599e-07
9.86679e-07
5.78249e-07
8.72068e-07
1.09431e-06
8.45432e-07
6.03901e-07
2.6809e-07
6.73967e-07
1.25372e-06
2.16176e-06
3.81805e-06
2.44708e-06
1.03285e-06
1.02901e-06
1.96148e-06
1.0807e-06
1.55688e-06
2.90168e-06
2.62676e-06
8.86372e-07
8.82014e-07
8.47814e-07
1.03665e-06
2.20953e-06
5.31619e-07
6.76132e-07
5.47102e-07
6.69761e-07
5.37144e-07
5.75507e-07
4.71081e-07
5.23058e-07
6.29786e-07
5.79528e-07
5.84577e-07
5.63793e-07
6.27627e-07
6.45463e-07
6.4506e-07
7.73043e-07
2.05411e-06
6.09363e-07
1.55611e-06
7.35245e-07
6.07043e-07
1.1783e-06
7.36324e-07
6.41737e-07
5.45571e-07
6.04982e-07
5.51268e-07
1.07078e-06
6.19322e-07
9.00409e-07
8.92632e-07
5.78331e-07
5.79805e-07
5.64453e-07
1.06913e-06
5.68067e-07
1.05076e-06
4.68222e-07
4.04316e-07
4.67142e-07
4.3047e-07
4.04368e-07
4.09366e-07
8.09681e-07
4.36883e-07
5.10635e-07
4.79187e-07
4.73143e-07
1.57442e-06
1.19046e-06
1.01848e-05
9.5875e-07
9.0874e-06
8.04962e-07
5.02783e-07
5.00953e-07
6.17372e-07
5.87259e-07
5.72413e-07
5.55597e-07
5.15915e-07
5.60955e-07
5.62027e-07
7.01325e-07
4.97645e-07
5.8638e-07
5.33929e-07
1.07592e-06
1.07872e-06
9.08269e-07
3.68997e-07
5.11806e-07
9.46296e-07
9.33863e-07
9.65143e-07
1.3063e-06
1.34658e-06
1.41569e-06
1.32372e-06
1.34246e-06
1.34046e-06
1.28369e-06
1.21884e-06
2.22529e-06
1.20501e-06
1.10329e-06
4.68489e-07
6.98652e-07
6.30047e-07
8.22105e-07
7.05859e-07
5.93129e-07
8.98291e-07
1.25692e-06
1.05186e-06
1.39611e-06
1.7593e-06
1.89825e-06
1.81291e-06
1.74721e-06
1.23103e-06
1.78795e-06
1.67206e-06
1.64029e-06
2.36766e-07
3.9057e-07
2.67191e-07
3.44255e-07
5.30099e-07
3.93531e-07
9.41026e-07
9.13631e-07
2.92876e-07
7.72187e-07
6.2326e-07
1.02806e-06
3.1623e-07
8.43782e-07
7.30577e-07
9.13999e-07
1.90075e-06
2.32511e-06
1.78596e-06
2.73949e-06
3.76732e-06
4.44638e-06
1.39669e-06
2.10838e-06
7.60177e-07
4.48087e-07
1.40186e-06
4.39045e-06
2.32368e-06
1.08234e-06
1.07244e-06
8.58645e-07
1.5612e-06
5.73861e-06
9.75495e-07
7.05004e-06
5.42521e-06
6.16516e-06
4.1531e-06
6.03114e-06
6.37404e-06
7.38968e-06
7.10816e-06
3.92305e-06
3.49504e-06
3.62101e-06
3.17963e-06
3.57488e-06
4.65029e-06
7.27372e-07
9.98792e-07
1.43783e-06
1.57458e-06
4.30256e-06
5.13643e-06
8.06759e-06
2.04351e-06
3.06932e-06
4.99391e-06
5.40841e-06
3.83756e-06
1.34165e-06
1.48768e-06
1.54339e-06
1.41559e-06
1.31934e-06
1.30718e-06
1.23803e-06
9.74807e-06
1.97939e-06
9.65694e-06
1.12103e-05
8.20755e-06
5.39446e-06
9.89168e-06
1.17258e-05
7.58815e-06
7.70712e-06
3.88425e-06
3.93667e-06
2.06841e-06
1.46504e-06
1.7656e-06
5.99591e-07
7.1752e-07
1.00162e-06
1.25891e-06
2.88628e-07
2.83755e-07
3.87424e-07
5.67243e-07
4.03698e-07
3.79856e-07
1.17839e-06
1.32147e-06
5.34457e-07
1.34689e-06
1.1287e-06
4.53133e-07
1.15816e-06
7.69452e-07
1.35403e-06
8.92268e-07
1.33667e-06
8.699e-07
8.69053e-07
9.70599e-07
5.30153e-07
8.88878e-07
5.36454e-07
2.90849e-07
2.45028e-07
2.45933e-07
2.23159e-07
3.87413e-07
1.31974e-06
8.64869e-07
4.67496e-07
4.91378e-07
4.19324e-07
7.9306e-07
4.32585e-07
8.43867e-07
8.61353e-07
6.59837e-07
5.03463e-07
5.02954e-07
4.11648e-07
2.46903e-07
4.00812e-07
6.38524e-07
5.88215e-07
8.75975e-07
8.26381e-07
9.58213e-07
6.13927e-07
8.05481e-07
7.34656e-07
5.91489e-07
5.81134e-07
6.96779e-07
5.77543e-07
8.5712e-07
1.03686e-06
5.98368e-07
6.29673e-07
1.26557e-06
2.25441e-06
2.30105e-06
1.09271e-06
3.34952e-06
3.51058e-06
2.04267e-06
8.58626e-07
1.03538e-06
8.86873e-07
2.48477e-06
1.13974e-06
1.10224e-06
1.31099e-06
3.27219e-06
3.61172e-06
2.55839e-06
5.5849e-07
8.45246e-07
5.68123e-07
8.73306e-07
9.81193e-07
2.48157e-06
6.51287e-07
9.03334e-07
5.7946e-07
7.42234e-07
6.52801e-07
4.81073e-07
9.32128e-07
5.80971e-07
5.59602e-07
6.12479e-07
7.87582e-07
6.29712e-07
5.77447e-07
5.84654e-07
6.02768e-07
1.73417e-06
2.13373e-06
6.26858e-07
6.20942e-07
1.3956e-06
6.33426e-07
7.43296e-07
8.62386e-07
6.43443e-07
6.03321e-07
6.4568e-07
1.17467e-06
1.10449e-06
1.07473e-06
6.30326e-07
7.15588e-07
6.93333e-07
6.79251e-07
6.77722e-07
6.36195e-07
1.07975e-06
8.3829e-07
9.35024e-07
1.16118e-06
9.06636e-07
6.92382e-07
6.12968e-07
5.95238e-07
1.09186e-06
6.04412e-07
6.12134e-07
4.97471e-07
5.3634e-07
4.99245e-07
5.3932e-07
5.00024e-07
4.3094e-07
4.09207e-07
3.50363e-07
4.43728e-07
5.38895e-07
5.0699e-07
4.89278e-07
4.74417e-07
5.36257e-07
1.6016e-06
1.23556e-06
4.29376e-07
1.12148e-05
1.44975e-06
2.41562e-06
8.06343e-07
5.51815e-06
5.79217e-07
6.39202e-07
7.33864e-07
5.64032e-07
6.43749e-07
6.51387e-07
6.54062e-07
7.15566e-07
5.72141e-07
5.58135e-07
5.42675e-07
5.36061e-07
1.05706e-06
1.03558e-06
1.50947e-06
7.15179e-07
5.45018e-07
1.24164e-06
1.09763e-06
5.72996e-07
1.37691e-06
1.32023e-06
1.36681e-06
1.29481e-06
1.3914e-06
1.42976e-06
1.34673e-06
1.29049e-06
8.76907e-07
1.26602e-06
1.1424e-06
9.10007e-07
5.60955e-07
6.05353e-07
9.43396e-07
4.81134e-07
7.16586e-07
6.5343e-07
3.46079e-07
7.97058e-07
1.17219e-06
9.62909e-07
1.40371e-06
1.95065e-06
1.69165e-06
2.02364e-06
1.90609e-06
9.61093e-07
1.76027e-06
1.6149e-06
1.52022e-06
2.65382e-07
4.00858e-07
4.59145e-07
2.80833e-07
4.50332e-07
5.46377e-07
8.92558e-07
9.44745e-07
2.78207e-07
1.0214e-06
6.24745e-07
1.10089e-06
3.16864e-07
9.68473e-07
9.74206e-07
1.11182e-06
1.46144e-06
2.1199e-06
8.83601e-07
6.61271e-06
2.87713e-06
9.20012e-07
4.52404e-07
1.79461e-06
5.23719e-06
2.26485e-06
1.11203e-06
1.1463e-06
1.08562e-06
1.75417e-06
2.51486e-06
1.01408e-06
1.04634e-05
1.14351e-05
4.8114e-06
4.58059e-06
9.09066e-06
6.3514e-06
1.08487e-05
8.56806e-06
7.28842e-06
5.62039e-06
8.38088e-06
1.02555e-06
2.59215e-06
2.4634e-06
1.30132e-06
2.82661e-06
2.70131e-06
3.91558e-06
7.08346e-06
8.18216e-07
3.99323e-07
1.01174e-06
1.57508e-06
2.327e-06
3.54543e-06
3.53671e-06
7.60324e-06
2.29246e-06
3.00377e-06
5.01634e-06
4.43796e-06
5.24627e-06
5.06559e-06
5.10766e-06
1.56537e-06
1.66778e-06
1.75091e-06
1.71882e-06
1.59873e-06
1.32574e-06
1.27462e-06
1.05525e-05
3.1732e-06
1.01108e-05
1.24758e-05
7.98935e-06
1.08437e-05
8.87348e-06
1.43464e-05
1.50478e-05
9.5197e-06
1.04059e-05
4.39608e-06
3.778e-06
4.99755e-06
1.29257e-06
1.58209e-06
1.57778e-06
1.78095e-06
6.29575e-07
8.35344e-07
6.95401e-07
1.18567e-06
1.44974e-06
2.98723e-07
3.04028e-07
2.7116e-07
4.20178e-07
4.89569e-07
4.11273e-07
4.50341e-07
1.42125e-06
1.32341e-06
5.49414e-07
1.37821e-06
1.3537e-06
1.10481e-06
6.54902e-07
1.07985e-06
8.1589e-07
1.41892e-06
1.48403e-06
8.91644e-07
9.50206e-07
1.56267e-06
9.1264e-07
5.43788e-07
8.9824e-07
4.42497e-07
2.54241e-07
2.33513e-07
2.05252e-07
2.12021e-07
8.29784e-07
4.71413e-07
4.10631e-07
7.29029e-07
4.89929e-07
4.04094e-07
3.5165e-07
7.4858e-07
2.55012e-07
5.14326e-07
1.04519e-06
8.8032e-07
7.02176e-07
8.85976e-07
8.30598e-07
4.66253e-07
3.72773e-07
3.94882e-07
9.0133e-07
1.44158e-06
7.89036e-07
9.63968e-07
9.06795e-07
8.24107e-07
9.32484e-07
8.49242e-07
5.97879e-07
5.69571e-07
2.41703e-07
6.92463e-07
5.67099e-07
5.83089e-07
5.71066e-07
5.57761e-07
1.25558e-06
1.42341e-06
2.57672e-06
2.50576e-06
9.92835e-07
1.528e-06
2.13438e-06
2.7745e-06
3.83264e-06
1.96389e-06
5.7877e-07
8.20382e-07
9.04072e-07
8.54168e-07
2.82426e-06
9.45657e-07
8.6243e-07
9.12341e-07
1.31245e-06
3.40171e-06
3.91951e-06
2.08096e-06
2.25955e-06
7.51108e-07
5.63062e-07
7.68167e-07
2.37739e-06
7.51874e-07
9.02052e-07
9.40009e-07
7.68602e-07
8.10122e-07
6.39033e-07
7.43381e-07
5.66479e-07
5.61649e-07
6.15062e-07
6.15988e-07
9.11895e-07
6.69112e-07
9.09653e-07
5.36448e-07
5.51953e-07
6.09648e-07
5.95636e-07
1.60667e-06
1.91652e-06
7.95454e-07
6.52005e-07
6.54294e-07
1.32196e-06
6.27682e-07
7.24953e-07
9.06945e-07
9.10603e-07
9.09525e-07
8.73418e-07
7.10523e-07
9.21059e-07
7.1697e-07
6.88352e-07
1.10646e-06
6.96e-07
1.10678e-06
1.21343e-06
7.09031e-07
7.57958e-07
8.40213e-07
6.97642e-07
6.43644e-07
6.35099e-07
6.62097e-07
6.65696e-07
1.13112e-06
8.89371e-07
8.39791e-07
1.28927e-06
9.44785e-07
1.20798e-06
9.0155e-07
8.53245e-07
6.27675e-07
6.35159e-07
6.02113e-07
6.19989e-07
6.22331e-07
1.11393e-06
6.27794e-07
6.53782e-07
5.379e-07
4.9937e-07
5.04298e-07
5.03386e-07
3.73457e-07
5.32748e-07
5.70925e-07
5.9867e-07
5.98273e-07
5.21401e-07
5.01824e-07
5.59109e-07
1.78943e-06
4.4725e-06
1.44088e-06
1.77221e-06
5.10469e-07
5.07759e-07
1.25871e-05
1.26684e-06
3.95722e-07
9.60316e-06
7.83643e-07
8.90294e-07
7.3261e-07
8.52244e-07
6.26169e-07
6.51464e-07
7.3492e-07
6.5732e-07
9.22081e-07
8.80748e-07
5.73691e-07
5.99511e-07
6.00749e-07
6.05504e-07
5.52298e-07
6.00158e-07
6.20825e-07
6.04986e-07
1.09321e-06
1.01641e-06
5.68253e-07
1.0218e-06
1.03023e-06
1.08492e-06
5.60287e-07
4.33475e-07
1.34621e-06
7.92066e-07
5.54043e-07
1.31144e-06
1.24355e-06
1.30784e-06
1.25215e-06
1.50274e-06
1.38016e-06
1.57121e-06
1.45617e-06
6.62393e-07
1.32262e-06
1.13495e-06
1.01586e-06
5.92394e-07
5.74795e-07
6.66133e-07
4.64952e-07
6.66721e-07
5.40133e-07
4.91029e-07
8.4654e-07
1.20755e-06
1.01165e-06
1.32514e-06
2.13811e-06
1.74041e-06
1.99616e-06
2.22392e-06
1.85979e-06
1.13665e-06
1.65341e-06
1.5078e-06
1.51439e-06
2.67625e-07
5.14903e-07
1.13409e-06
5.18949e-07
5.81492e-07
1.04011e-06
7.80218e-07
3.20984e-07
1.40989e-06
1.06806e-06
1.14799e-06
3.23979e-07
1.41209e-06
9.72811e-07
1.12482e-06
1.4929e-06
1.24185e-06
1.0827e-06
6.99899e-07
6.98539e-06
2.39923e-06
4.08216e-06
5.99321e-06
2.85539e-06
1.18204e-06
1.13824e-06
1.74468e-06
2.42024e-06
5.06026e-07
1.43286e-05
2.66643e-06
1.93411e-06
1.20003e-05
7.13994e-06
9.34005e-06
1.28403e-05
1.13431e-05
6.49772e-06
5.58835e-06
7.1877e-06
8.77618e-06
6.89451e-06
5.04624e-07
9.07925e-07
2.91286e-06
1.65936e-06
2.17732e-06
2.88221e-06
2.98448e-06
7.25496e-06
7.54205e-07
4.01788e-07
6.0833e-07
7.81119e-07
1.52872e-06
1.08588e-06
4.43625e-06
1.36768e-06
2.31249e-06
8.42128e-06
3.25904e-06
4.37605e-06
8.78835e-06
7.9871e-06
7.93633e-06
5.55963e-06
4.95091e-06
1.60561e-06
1.80455e-06
1.88793e-06
1.67947e-06
1.81566e-06
1.63294e-06
1.44864e-06
1.23679e-06
1.09626e-05
1.58783e-05
1.12599e-05
1.48937e-05
8.25033e-06
1.13576e-05
1.02388e-05
6.09518e-06
3.42243e-06
3.8336e-06
4.47076e-06
1.09874e-05
5.85112e-06
1.27282e-06
1.24247e-06
9.20564e-07
1.48626e-06
2.37373e-06
9.34667e-07
8.42339e-07
6.3782e-07
1.33875e-06
1.46956e-06
3.19004e-07
4.12415e-07
4.51341e-07
4.50449e-07
1.48106e-06
1.32266e-06
2.29298e-06
6.44603e-07
1.63853e-06
1.36652e-06
1.63098e-06
1.03572e-06
1.38234e-06
7.84742e-07
5.42141e-07
1.32655e-06
9.94809e-07
6.99725e-07
1.56782e-06
1.70948e-06
1.3651e-06
1.5661e-06
9.1159e-07
9.11765e-07
1.5578e-06
9.57601e-07
9.61762e-07
5.11809e-07
9.65836e-07
9.03242e-07
2.01141e-06
5.39404e-07
3.43228e-07
2.37099e-07
3.36095e-07
2.32181e-07
2.07744e-07
2.64437e-07
1.05097e-06
6.11719e-07
4.27577e-07
4.05366e-07
9.63863e-07
7.27429e-07
3.99895e-07
3.51902e-07
4.01341e-07
3.04065e-07
4.44795e-07
5.74102e-07
1.01373e-06
6.57237e-07
1.00538e-06
8.856e-07
4.75787e-07
6.16641e-07
3.39477e-07
1.30263e-06
1.44102e-06
9.20161e-07
1.20459e-06
9.28069e-07
7.58605e-07
2.33504e-07
5.63719e-07
6.83458e-07
7.56612e-07
9.39584e-07
1.31707e-06
9.29185e-07
2.05461e-06
2.19168e-06
1.77211e-06
2.85255e-06
8.49511e-07
9.04057e-07
1.24036e-06
1.33787e-06
1.91962e-06
2.44626e-06
3.68725e-06
3.52147e-06
1.10958e-06
5.69356e-07
7.25611e-07
7.34029e-07
7.32223e-07
8.99307e-07
3.11404e-06
1.09888e-06
8.17132e-07
7.8198e-07
1.03534e-06
8.12175e-07
1.2014e-06
3.01846e-06
3.64436e-06
3.25283e-06
1.37892e-06
6.10856e-07
5.83734e-07
5.98672e-07
6.32398e-07
6.54132e-07
2.31304e-06
8.04917e-07
1.0124e-06
1.20799e-06
1.48833e-06
9.06382e-07
9.04538e-07
9.48472e-07
6.06608e-07
5.98518e-07
6.15897e-07
9.20602e-07
1.07415e-06
7.87395e-07
9.29827e-07
5.36787e-07
5.75302e-07
5.59077e-07
6.42937e-07
6.31961e-07
6.18526e-07
1.54343e-06
5.49708e-07
1.84206e-06
9.69368e-07
7.96335e-07
6.9677e-07
8.021e-07
7.33004e-07
6.92255e-07
1.21993e-06
7.0154e-07
7.27999e-07
7.4611e-07
1.18863e-06
7.85303e-07
9.52639e-07
9.12613e-07
1.042e-06
9.89585e-07
8.69244e-07
8.46721e-07
1.03615e-06
7.13794e-07
6.81153e-07
1.10579e-06
1.09729e-06
7.28536e-07
1.19349e-06
1.28401e-06
8.45921e-07
8.74208e-07
6.45639e-07
6.52855e-07
6.80038e-07
7.07855e-07
7.51554e-07
6.74538e-07
1.17169e-06
1.28905e-06
1.28843e-06
1.28978e-06
1.74245e-06
1.29066e-06
1.19392e-06
9.20264e-07
1.56589e-06
8.52745e-07
6.5925e-07
6.54325e-07
6.30038e-07
6.48041e-07
6.58877e-07
3.85572e-07
5.41313e-07
6.21188e-07
1.00663e-06
1.04675e-06
4.84134e-07
6.37105e-07
7.69137e-06
7.45199e-07
6.85655e-06
7.15708e-07
2.09014e-06
1.88425e-06
4.7981e-07
4.94154e-07
4.27429e-07
1.67757e-05
6.13068e-06
1.30693e-06
3.96792e-07
9.79601e-06
8.74025e-07
8.77776e-07
1.21884e-06
9.05603e-07
8.30746e-07
8.56104e-07
8.52307e-07
9.08637e-07
1.11928e-06
1.12493e-06
9.20069e-07
1.2175e-06
8.94804e-07
1.27782e-06
5.92483e-07
7.0972e-07
7.1328e-07
6.07508e-07
5.97076e-07
7.35424e-07
6.33775e-07
6.43907e-07
6.22754e-07
1.15248e-06
5.62703e-07
1.04487e-06
5.62974e-07
5.62912e-07
1.01137e-06
1.01013e-06
9.81703e-07
9.16091e-07
5.39603e-07
1.58466e-06
7.34583e-07
3.49316e-07
1.31702e-06
1.20395e-06
1.19987e-06
1.12993e-06
1.59782e-06
1.37102e-06
1.52684e-06
1.68393e-06
1.36541e-06
7.72414e-07
1.16919e-06
1.04626e-06
8.34868e-07
4.93056e-07
5.78233e-07
6.63022e-07
3.67023e-07
7.39668e-07
5.14137e-07
5.53788e-07
4.77856e-07
6.91462e-07
1.13833e-06
9.13266e-07
1.37504e-06
2.28006e-06
2.16197e-06
1.50282e-06
1.95362e-06
2.07664e-06
2.26847e-06
1.87401e-06
1.01987e-06
1.54764e-06
1.43978e-06
1.34902e-06
2.40387e-07
3.84531e-07
6.93003e-07
4.84689e-07
2.2566e-06
6.44237e-07
4.41336e-07
8.48542e-07
9.2604e-07
3.88767e-06
8.65979e-07
1.15592e-06
2.07588e-06
1.74044e-06
1.20077e-06
8.98677e-07
1.10303e-06
4.05976e-07
4.94826e-06
8.24003e-06
3.84926e-07
2.95908e-06
4.82255e-06
6.34048e-06
1.26649e-06
1.16054e-06
1.2509e-06
3.89203e-07
1.58807e-05
2.46285e-06
1.40188e-05
1.02741e-05
1.55227e-05
1.30409e-05
1.3241e-05
1.11955e-05
1.69095e-05
3.34973e-06
5.88919e-06
3.20767e-06
1.06492e-05
9.47803e-06
3.51863e-06
7.90219e-06
5.03969e-07
1.10365e-06
2.63785e-06
1.02147e-06
1.29628e-06
3.54022e-06
8.2336e-06
4.0297e-07
5.61505e-07
6.57039e-07
6.73215e-07
3.19795e-06
2.45661e-06
1.12338e-06
2.05854e-06
8.83763e-06
3.3854e-06
6.03484e-06
1.05122e-05
8.04387e-06
1.02712e-05
7.40794e-06
5.81484e-06
6.36858e-06
1.72172e-06
1.82268e-06
1.92699e-06
1.89766e-06
1.98937e-06
1.91641e-06
1.45552e-06
1.43839e-06
1.50968e-05
1.00662e-05
1.49791e-05
1.48798e-05
6.17055e-06
3.11499e-06
5.22203e-06
3.57213e-06
2.67536e-06
5.14019e-06
1.23529e-05
8.49874e-06
1.34841e-06
7.88621e-07
1.00049e-06
1.7718e-06
2.2535e-06
1.12564e-06
8.30984e-07
6.81221e-07
9.12079e-07
1.34968e-06
1.51743e-06
4.78961e-07
2.35344e-06
2.04234e-06
2.24297e-06
1.57875e-06
6.65471e-07
2.78588e-06
1.58431e-06
2.25067e-06
1.58193e-06
1.46516e-06
1.02775e-06
5.80837e-07
1.51858e-06
3.69555e-07
1.28295e-06
1.14108e-06
7.63224e-07
6.99246e-07
3.08067e-06
1.72339e-06
1.562e-06
4.3551e-06
1.6775e-06
9.73938e-07
5.25226e-07
1.10232e-06
1.07553e-06
1.39071e-06
4.55601e-07
2.37266e-07
3.99791e-07
5.65954e-07
4.69468e-07
2.34343e-07
5.98067e-07
4.54435e-07
4.40508e-07
9.56705e-07
7.07868e-07
8.56089e-07
4.58677e-07
3.9683e-07
8.11256e-07
5.72299e-07
3.86255e-07
7.40932e-07
6.58708e-07
6.55791e-07
1.4149e-06
1.00573e-06
8.88799e-07
8.39545e-07
4.89014e-07
2.07902e-06
1.42207e-06
1.13533e-06
1.20172e-06
2.36304e-07
6.52611e-07
6.99959e-07
6.47963e-07
7.44605e-07
1.04601e-06
1.35652e-06
7.75924e-07
2.54043e-06
1.37883e-06
1.88742e-06
3.04801e-06
2.4981e-06
7.17811e-07
6.92386e-07
1.13482e-06
1.3238e-06
1.52938e-06
2.19931e-06
2.62319e-06
3.49915e-06
3.35371e-06
3.37107e-06
2.28506e-06
1.4551e-06
5.5421e-07
6.44128e-07
8.67038e-07
2.98956e-06
8.09225e-07
7.86406e-07
8.69372e-07
3.21215e-06
8.51191e-07
2.53189e-06
2.82544e-06
1.07589e-06
5.4036e-07
5.45696e-07
8.09872e-07
5.92061e-07
5.89686e-07
6.38308e-07
2.08912e-06
9.54415e-07
1.19289e-06
1.2031e-06
1.52618e-06
9.04451e-07
1.2095e-06
6.87503e-07
7.77091e-07
1.03987e-06
1.0784e-06
1.26911e-06
7.88069e-07
9.73151e-07
5.51209e-07
6.71792e-07
5.40963e-07
6.68069e-07
7.77117e-07
6.67667e-07
6.1803e-07
6.11133e-07
1.36488e-06
5.29653e-07
6.70027e-07
5.72978e-07
1.57796e-06
1.21258e-06
1.21079e-06
6.97228e-07
1.01746e-06
8.51309e-07
8.72788e-07
8.92906e-07
7.08019e-07
1.12653e-06
7.80254e-07
7.48006e-07
1.28348e-06
8.58733e-07
1.75381e-06
1.35161e-06
1.78312e-06
1.01621e-06
9.85759e-07
9.85192e-07
1.03753e-06
1.1074e-06
8.5635e-07
8.0544e-07
1.14796e-06
8.59011e-07
1.06517e-06
8.10164e-07
1.09928e-06
8.40783e-07
1.18092e-06
1.21524e-06
1.6311e-06
1.3692e-06
1.43016e-06
6.59142e-07
6.78158e-07
1.11258e-06
1.0302e-06
7.91688e-07
7.75377e-07
1.15311e-06
1.28646e-06
1.50169e-06
1.50724e-06
1.86458e-06
1.69352e-06
1.96298e-06
1.56845e-06
1.35925e-06
7.17416e-07
7.22054e-07
7.20513e-07
3.84199e-07
4.75808e-07
6.31458e-07
1.00547e-06
1.03965e-06
1.05168e-06
1.42979e-06
4.91218e-07
5.47994e-07
7.46912e-07
7.01692e-07
1.18013e-05
7.87502e-07
9.05252e-06
6.72054e-07
2.05062e-06
4.83108e-07
4.25361e-07
2.05207e-05
1.42916e-05
5.29088e-06
9.14375e-06
6.24205e-07
3.93273e-07
1.55091e-05
2.0251e-06
7.5591e-07
3.62415e-06
6.93891e-07
1.12631e-06
1.29386e-06
1.06054e-06
1.0897e-06
1.32552e-06
1.12855e-06
1.32627e-06
9.38128e-07
1.2591e-06
1.20094e-06
1.03432e-06
1.26241e-06
1.06868e-06
9.91078e-07
9.5925e-07
6.37081e-07
6.28312e-07
7.39277e-07
7.31037e-07
7.65125e-07
7.434e-07
6.91018e-07
7.67119e-07
6.7546e-07
1.04767e-06
6.01133e-07
1.01262e-06
6.09799e-07
5.63886e-07
5.75066e-07
5.56636e-07
1.06424e-06
1.22059e-06
1.17369e-06
1.05496e-06
4.44749e-07
1.08979e-06
1.34324e-06
4.16119e-07
7.46449e-07
1.3836e-06
1.16966e-06
1.00603e-06
1.12115e-06
1.75075e-06
1.60454e-06
1.14057e-06
1.51195e-06
1.66461e-06
1.78577e-06
1.4628e-06
5.60883e-07
1.0794e-06
1.03024e-06
9.52755e-07
6.20599e-07
7.89222e-07
9.45899e-07
5.95031e-07
5.37212e-07
7.78189e-07
3.9474e-07
4.9261e-07
4.16822e-07
6.73901e-07
1.19548e-06
9.44905e-07
1.31353e-06
2.43169e-06
2.30642e-06
1.61381e-06
1.94921e-06
2.0314e-06
2.17324e-06
2.33224e-06
1.79083e-06
9.7612e-07
1.59298e-06
1.42793e-06
1.33626e-06
3.27048e-07
3.57284e-07
4.64416e-07
1.33042e-06
3.69171e-07
5.74136e-07
5.24144e-07
6.07763e-07
9.0834e-07
6.9729e-07
2.06273e-06
2.14474e-06
1.13236e-06
9.86051e-07
2.53687e-06
1.59306e-06
1.28269e-06
6.03003e-07
9.16834e-07
9.63482e-07
7.4967e-06
1.16074e-06
9.0429e-06
6.21564e-07
4.28675e-06
6.14175e-06
7.03337e-06
1.12965e-06
1.11421e-06
1.24888e-06
4.14891e-07
1.67417e-05
2.09359e-06
1.99668e-05
2.03877e-05
1.11976e-05
1.87565e-05
1.97036e-05
1.55967e-05
8.67697e-06
6.75921e-06
1.63589e-05
1.95991e-05
3.05712e-06
3.81038e-06
3.22693e-06
1.90609e-06
5.1963e-06
5.38044e-06
8.90157e-06
1.57512e-05