/*--------------------------------*- C++ -*----------------------------------*\
  =========                 |
  \\      /  F ield         | OpenFOAM: The Open Source CFD Toolbox
   \\    /   O peration     | Website:  https://openfoam.org
    \\  /    A nd           | Version:  10
     \\/     M anipulation  |
\*---------------------------------------------------------------------------*/
FoamFile
{
    format      ascii;
    class       volScalarField;
    location    "32";
    object      V;
}
// * * * * * * * * * * * * * * * * * * * * * * * * * * * * * * * * * * * * * //

dimensions      [0 3 0 0 0 0 0];

internalField   nonuniform List<scalar> 
143879
(
6.48339e-13
7.1776e-13
1.38343e-12
9.72509e-13
1.07494e-12
8.65891e-13
1.62251e-12
2.54224e-12
2.0751e-12
2.78039e-12
1.45876e-12
1.60858e-12
1.30911e-12
2.43575e-12
1.37046e-12
2.50969e-12
3.67562e-12
2.35117e-12
1.56071e-12
3.76777e-12
4.78589e-12
3.11258e-12
4.15611e-12
6.38095e-12
3.11849e-11
7.99264e-12
1.98678e-12
3.65809e-12
2.05186e-12
3.79717e-12
5.51931e-12
3.57546e-12
9.26034e-13
4.18246e-12
4.5226e-12
4.42999e-12
3.44454e-12
8.42668e-13
2.3421e-12
3.03059e-12
5.54908e-12
7.06496e-12
6.05243e-12
5.14756e-12
3.1278e-11
6.20172e-12
9.52709e-12
8.25593e-12
6.8629e-12
2.41612e-11
1.84575e-11
9.07334e-12
7.89637e-12
2.06239e-11
3.06919e-12
5.7691e-12
1.68779e-11
8.29237e-12
5.47278e-12
1.38905e-12
6.3064e-12
6.86716e-12
6.65349e-12
5.24128e-12
1.54563e-12
5.44407e-12
6.32628e-12
6.0388e-12
8.05849e-12
7.57431e-12
1.37814e-12
1.264e-12
3.5155e-12
4.50523e-12
4.13135e-12
2.86156e-12
1.03428e-11
8.90252e-12
7.60272e-12
7.78106e-12
8.61651e-12
3.00037e-11
2.02911e-11
1.41915e-11
1.23253e-11
1.00549e-11
1.18287e-11
6.72692e-12
2.83207e-11
2.98002e-11
1.9356e-11
1.50766e-11
1.30633e-11
9.28414e-12
1.99753e-11
1.45399e-11
2.45434e-11
2.08358e-12
2.68084e-11
9.53305e-12
1.52432e-11
1.04879e-11
1.41285e-11
1.26954e-11
1.52726e-11
9.99939e-12
1.28893e-11
8.02946e-12
2.33052e-12
8.18434e-12
9.55372e-12
9.16575e-12
1.20806e-11
1.15594e-11
1.13857e-12
4.13387e-12
8.50957e-12
1.28972e-11
8.85822e-12
5.51586e-12
1.40334e-11
9.91006e-12
1.21352e-12
2.05479e-12
1.90822e-12
1.896e-12
6.66586e-12
6.13014e-12
4.26304e-12
5.46836e-12
2.94095e-12
1.29608e-11
1.11386e-11
1.14204e-11
1.27136e-11
9.49069e-12
9.74436e-12
1.04126e-11
2.4895e-11
2.85214e-11
2.14071e-11
1.14779e-11
4.42956e-11
1.83567e-11
1.45475e-11
1.76023e-11
9.80727e-12
1.86779e-11
1.13769e-11
3.42846e-11
2.9404e-11
2.73464e-11
1.61322e-11
1.38641e-11
1.38068e-11
2.5886e-11
3.07928e-11
1.76643e-11
1.59841e-11
3.43565e-11
3.52297e-12
3.8846e-11
2.38201e-11
3.65763e-11
3.6526e-11
1.23173e-11
1.44748e-11
1.12309e-11
3.42618e-11
1.39898e-11
7.6261e-12
1.26415e-11
8.24125e-12
1.3752e-11
1.81054e-11
6.69752e-12
1.9575e-11
1.7784e-11
1.69002e-12
6.20218e-12
1.27729e-11
1.94992e-11
1.35075e-11
8.37926e-12
2.10779e-11
1.51818e-11
8.3815e-13
2.78193e-12
4.9435e-12
1.04696e-11
1.56232e-11
1.20495e-11
9.3708e-12
6.51229e-12
1.88683e-11
1.89951e-11
1.24024e-12
1.82479e-12
1.54043e-12
3.05425e-12
2.85577e-12
1.85997e-12
9.04553e-12
6.32827e-12
8.09577e-12
4.37871e-12
8.14642e-12
4.46833e-12
3.25509e-12
2.62487e-11
1.65716e-11
1.92668e-11
1.85992e-11
1.38742e-11
1.42991e-11
1.53472e-11
1.45569e-11
1.10868e-11
1.55714e-11
2.53501e-11
1.54263e-11
1.95863e-11
1.54142e-11
1.55932e-11
3.41574e-11
5.55816e-11
2.60888e-11
1.40825e-11
2.78542e-11
1.65297e-11
2.00817e-11
1.35625e-11
1.48999e-11
2.94983e-11
2.28158e-11
2.44607e-11
2.45553e-11
2.10656e-11
2.72172e-11
2.29124e-11
2.33487e-11
2.91477e-11
5.50649e-11
1.60008e-11
1.7106e-11
1.35441e-11
1.45537e-11
3.38595e-11
2.49491e-12
9.30695e-12
4.26987e-11
1.80779e-11
2.36678e-11
3.41302e-11
3.62995e-11
4.1286e-11
1.91812e-11
2.95927e-11
2.1667e-11
3.0775e-11
2.87233e-11
2.07558e-11
1.28052e-11
1.48767e-11
8.90508e-12
1.81382e-11
7.39632e-12
1.62698e-11
1.09273e-11
2.7125e-11
5.5289e-11
3.16795e-11
1.90072e-11
1.85056e-11
2.38106e-11
2.34854e-11
1.25808e-12
4.12768e-12
7.38244e-12
1.56128e-11
2.34852e-11
1.8237e-11
1.42876e-11
9.89554e-12
2.82188e-11
2.91214e-11
1.5615e-12
3.24143e-12
3.49067e-12
7.0434e-12
1.32634e-11
2.7212e-11
1.64221e-11
2.09852e-11
1.26584e-11
2.26573e-11
2.2543e-11
1.90561e-12
1.76678e-12
2.74734e-12
2.31e-12
1.88528e-12
4.26795e-12
2.7799e-12
2.93241e-12
2.55264e-11
1.19033e-11
6.49337e-12
1.20557e-11
6.64046e-12
4.85229e-12
1.16037e-11
5.10631e-12
4.21526e-12
2.32949e-11
4.91335e-11
2.00082e-11
2.07425e-11
2.30938e-11
3.67445e-11
2.24134e-11
2.12643e-11
1.62391e-11
2.2927e-11
1.62594e-11
1.5054e-11
1.58387e-11
2.30423e-11
3.01797e-11
2.8769e-11
3.46384e-11
2.10104e-11
4.18082e-11
6.11294e-11
4.27051e-11
4.14166e-11
2.36065e-11
2.97771e-11
1.96324e-11
2.39858e-11
1.99086e-11
1.10581e-11
1.21835e-11
2.09078e-11
2.4586e-11
2.14504e-11
2.35389e-11
3.0016e-11
3.66723e-11
2.16616e-11
1.68794e-11
2.37603e-11
2.80894e-11
2.43109e-10
1.22616e-11
1.41133e-11
9.09835e-12
5.50649e-11
1.82987e-11
2.99117e-11
2.30326e-11
1.84898e-11
1.88903e-12
6.09136e-12
3.1669e-11
1.10012e-11
2.5746e-11
2.25901e-11
2.89298e-11
1.01326e-11
1.4768e-11
3.51567e-11
2.80738e-11
5.10548e-11
2.32166e-11
3.53396e-11
3.63713e-11
2.77194e-11
2.10053e-11
2.65137e-11
2.29153e-11
3.93703e-11
2.11196e-11
2.19499e-11
1.51277e-11
1.82311e-11
1.84901e-11
2.76909e-11
1.6925e-11
6.49848e-12
2.36699e-11
2.23132e-11
3.32026e-11
5.13683e-11
4.21407e-11
1.85263e-11
1.84556e-11
2.35334e-11
2.09819e-11
3.88496e-11
4.50927e-11
2.33759e-12
4.83983e-12
5.1421e-12
1.05024e-11
1.97577e-11
4.08599e-11
2.48681e-11
3.20343e-11
1.92384e-11
3.40362e-11
3.4622e-11
2.13982e-12
2.40863e-12
3.50323e-12
2.91197e-12
3.81146e-12
1.09293e-11
1.83574e-11
2.90065e-11
3.72092e-11
2.80639e-11
1.87464e-11
1.78485e-11
2.6744e-11
2.91264e-11
2.96021e-12
2.69753e-12
2.07596e-12
1.70509e-12
3.46233e-12
2.82929e-12
2.7744e-12
4.14564e-12
4.39142e-12
3.40016e-12
2.45312e-11
1.77166e-11
9.82055e-12
1.5562e-11
7.209e-12
1.71448e-11
7.57702e-12
6.27816e-12
1.97083e-11
9.31367e-12
5.97513e-12
5.17785e-11
4.65297e-11
3.06307e-11
2.41393e-11
2.34921e-11
2.18991e-11
2.0226e-11
3.82813e-11
3.34331e-11
2.367e-11
2.203e-11
2.31697e-11
3.39491e-11
2.22313e-11
2.57628e-11
2.1354e-11
2.57975e-11
3.41019e-11
3.14988e-11
4.16842e-11
2.8069e-11
2.51205e-11
5.6617e-11
4.38902e-11
2.78777e-11
3.57553e-11
2.87525e-11
3.09771e-11
2.47364e-11
8.9201e-12
8.59542e-12
1.56198e-11
2.00942e-11
3.53278e-11
2.26898e-11
1.93165e-11
2.87967e-11
2.02637e-11
3.47519e-11
2.13354e-11
1.78767e-11
1.42244e-11
5.72926e-11
5.72926e-11
5.52046e-11
5.72926e-11
2.43109e-10
1.47311e-11
2.39265e-11
1.02948e-11
2.00936e-11
2.75673e-11
1.84303e-11
2.82994e-11
1.68148e-11
1.91446e-11
2.23242e-11
3.4949e-12
7.21037e-12
7.50447e-12
2.37406e-11
2.50358e-11
1.56181e-11
2.07232e-11
3.7365e-11
2.92975e-11
1.0352e-11
1.92371e-11
1.46746e-11
3.66001e-11
2.80392e-11
5.83035e-11
6.25334e-11
3.14686e-11
2.93363e-11
6.64973e-11
6.13841e-11
5.56369e-11
3.44525e-11
6.28937e-11
3.78237e-11
1.58657e-11
2.12407e-11
2.58819e-11
4.58791e-11
4.80853e-11
3.12908e-11
3.16009e-11
4.9299e-11
2.07754e-11
2.94184e-11
1.66284e-11
2.36779e-11
1.30803e-11
1.93678e-11
2.82237e-11
2.71886e-11
3.83342e-11
3.59011e-11
6.53439e-11
1.04373e-10
5.11674e-11
1.48519e-11
2.34871e-11
1.9073e-11
1.43192e-11
1.08274e-11
6.12567e-11
5.54995e-11
5.37498e-11
3.23301e-12
3.56823e-12
5.17141e-12
4.2865e-12
5.60587e-12
1.61448e-11
2.71494e-11
4.3279e-11
5.59615e-11
4.2417e-11
2.86e-11
2.71399e-11
3.99122e-11
4.46402e-11
2.76568e-12
3.27819e-12
6.75053e-12
4.56232e-12
4.15436e-12
1.37089e-11
2.20692e-11
2.84775e-11
5.0489e-11
3.20828e-11
2.35943e-11
2.49123e-11
3.81513e-11
3.40064e-11
2.81521e-11
1.18386e-11
4.15048e-12
3.19607e-12
2.57947e-12
3.3091e-12
2.32462e-12
4.24528e-12
4.17402e-12
2.98011e-12
6.56891e-12
5.09387e-12
4.56363e-12
1.6916e-11
1.93568e-11
2.08403e-11
2.51318e-11
1.11779e-11
2.2507e-11
2.06853e-11
9.31421e-12
2.91932e-11
1.38265e-11
8.91026e-12
2.48875e-11
9.28671e-12
7.34173e-12
7.32344e-11
4.09384e-11
4.73811e-11
3.39154e-11
3.18232e-11
3.33031e-11
3.25683e-11
3.34495e-11
2.31882e-11
1.36765e-11
2.25468e-11
3.00997e-11
1.80758e-11
2.84417e-11
4.9553e-11
3.23158e-11
3.76453e-11
3.12453e-11
3.79961e-11
2.43344e-11
2.78864e-11
2.68035e-11
2.6948e-11
2.28605e-11
3.75236e-11
3.84115e-11
2.94287e-11
2.43997e-11
7.32345e-11
4.87718e-11
5.99227e-11
5.31308e-11
4.06795e-11
4.60086e-11
3.57356e-11
2.99018e-11
2.94587e-11
2.82748e-11
2.07168e-11
1.49305e-11
1.98616e-11
2.48116e-11
2.15129e-11
2.49842e-11
2.06389e-11
2.84064e-11
3.28094e-11
2.54666e-11
1.41999e-11
3.17058e-11
2.53121e-11
2.86463e-11
4.22486e-11
2.8801e-11
2.14482e-11
2.81243e-11
2.35851e-11
2.86463e-11
4.21531e-11
2.63388e-11
5.72926e-11
5.72926e-11
5.72926e-11
5.72926e-11
2.30175e-11
1.92498e-11
3.76761e-11
2.76988e-11
3.75956e-11
2.74419e-11
2.2787e-11
2.6185e-11
2.4792e-11
2.21165e-11
1.6831e-11
1.50561e-11
2.49964e-11
4.90111e-12
5.25171e-12
1.86113e-11
7.57362e-12
2.14826e-11
6.24988e-12
8.15832e-12
1.89566e-11
2.08863e-11
2.08173e-11
2.49981e-11
2.36674e-11
2.71991e-11
2.92099e-11
3.1646e-11
2.22614e-11
1.48334e-11
2.26503e-11
5.89475e-11
3.60265e-11
2.08251e-11
4.50446e-11
8.40844e-11
2.43819e-11
2.92719e-11
3.98654e-11
6.43992e-11
9.65968e-11
8.42587e-11
5.2613e-11
5.56244e-11
4.83973e-11
6.43375e-11
2.03909e-11
1.94159e-11
6.13079e-11
2.87291e-11
3.00215e-11
6.79623e-11
6.27156e-11
4.39737e-11
3.56707e-11
4.15286e-11
1.25606e-11
1.92744e-11
3.51786e-11
1.47395e-11
1.53101e-11
3.05828e-11
1.3709e-11
2.77798e-11
2.94679e-11
4.25771e-11
2.26079e-11
2.45187e-11
4.55556e-11
6.31258e-11
1.08542e-10
5.94096e-11
1.60319e-11
4.56318e-11
2.38876e-11
1.39535e-11
1.09576e-11
2.01977e-11
5.72532e-11
6.2422e-11
4.12364e-11
8.44952e-11
6.90902e-11
4.13187e-12
4.78264e-12
9.96616e-12
6.64227e-12
6.01935e-12
2.02357e-11
3.26224e-11
4.23649e-11
7.58089e-11
4.85595e-11
3.59838e-11
3.78064e-11
5.72748e-11
5.19604e-11
4.32462e-11
3.15978e-12
3.38847e-12
3.8025e-12
5.7904e-12
4.58763e-12
5.07967e-12
8.51325e-12
2.27956e-11
1.72055e-11
3.39584e-11
5.46832e-11
6.66324e-11
5.28822e-11
2.44805e-11
3.84391e-11
3.03229e-11
2.39138e-11
9.01221e-12
4.97729e-12
3.91621e-12
5.06577e-12
3.52077e-12
3.92366e-12
3.91224e-12
1.47822e-11
6.28612e-12
4.48912e-12
5.0389e-12
7.62337e-12
6.843e-12
5.08083e-12
1.94311e-11
2.74549e-11
1.84236e-11
3.26335e-11
4.29616e-11
2.04141e-11
2.07276e-11
2.81744e-11
1.85379e-11
1.32434e-11
3.68565e-11
1.37881e-11
1.09554e-11
3.01039e-11
1.74583e-11
9.35689e-12
3.905e-11
3.82937e-11
4.7223e-11
2.65338e-11
4.61978e-11
4.20092e-11
5.4261e-11
3.74545e-11
3.31315e-11
2.82274e-11
4.51258e-11
2.74006e-11
1.41364e-11
2.87767e-11
2.77351e-11
2.71763e-11
1.9009e-11
2.57675e-11
6.11909e-11
5.54345e-11
3.53355e-11
4.06946e-11
3.90543e-11
3.95296e-11
3.36665e-11
2.40609e-11
3.72697e-11
3.5116e-11
4.79788e-11
2.53253e-11
2.48852e-11
3.45302e-11
3.25387e-11
3.46494e-11
6.29051e-11
4.16269e-11
4.35104e-11
7.98642e-11
6.79852e-11
5.05873e-11
4.45111e-11
4.25291e-11
4.08022e-11
2.13083e-11
2.48288e-11
2.60233e-11
1.37394e-11
1.74595e-11
3.54514e-11
2.51519e-11
2.78622e-11
2.1595e-11
4.03506e-11
2.35992e-11
3.32062e-11
2.13002e-11
2.22033e-11
4.59279e-11
3.73398e-11
4.99898e-11
4.81296e-11
3.39095e-11
3.3771e-11
1.84078e-11
2.88822e-11
1.99753e-11
2.37203e-11
2.00761e-11
3.21311e-11
4.14069e-11
3.20702e-11
2.59457e-11
3.83024e-11
4.46874e-11
3.86497e-11
5.14866e-11
3.73398e-11
4.14984e-11
2.37058e-11
3.9627e-11
3.34739e-11
5.12574e-11
4.29132e-11
2.00657e-11
5.93295e-11
1.67564e-11
3.5358e-11
3.11771e-11
3.90578e-11
2.38017e-11
2.2609e-11
3.0611e-11
2.12767e-11
2.82635e-11
1.59997e-11
1.62029e-11
1.27308e-11
1.20524e-11
1.34609e-11
6.15449e-12
2.3268e-11
6.86288e-12
1.90389e-11
2.14104e-11
1.46003e-11
2.72118e-11
1.07014e-11
9.52153e-12
8.56028e-12
1.354e-11
1.78151e-11
1.54955e-11
3.37947e-11
2.96348e-11
2.18008e-11
4.12524e-11
1.90304e-11
4.62745e-11
2.39397e-11
2.30249e-11
1.49103e-11
6.27279e-11
5.99298e-11
1.94748e-11
4.04676e-11
5.93191e-11
7.54388e-11
2.60103e-11
3.1225e-11
4.05022e-11
4.78655e-11
9.53121e-11
6.27626e-11
7.55675e-11
1.18606e-10
1.13859e-10
4.90108e-11
3.97662e-11
7.19897e-11
7.30127e-11
6.26233e-11
7.38027e-11
3.82902e-11
8.21482e-11
6.58005e-11
2.47316e-11
6.03449e-11
5.00599e-11
5.5296e-11
4.63124e-11
5.76818e-11
1.67683e-11
3.16187e-11
1.76838e-11
1.88369e-11
2.2215e-11
3.03086e-11
4.52359e-11
1.9235e-11
3.59198e-11
3.41764e-11
4.73875e-11
4.98785e-11
5.86641e-11
4.53143e-11
8.61225e-11
1.21049e-10
8.60198e-11
2.21262e-11
4.73398e-11
2.45578e-11
1.73863e-11
1.31134e-11
1.79664e-11
3.44115e-11
5.75011e-11
7.97037e-11
3.84355e-11
5.31744e-11
7.98018e-11
7.75951e-11
8.00706e-11
6.71598e-11
4.70073e-12
5.13151e-12
5.5263e-12
8.47601e-12
6.68343e-12
7.42755e-12
1.24665e-11
3.37871e-11
2.52833e-11
5.06306e-11
8.16539e-11
1.00189e-10
7.99164e-11
3.7192e-11
5.73042e-11
4.62908e-11
3.66815e-11
3.39925e-12
2.98434e-12
6.32739e-12
7.53269e-12
6.29346e-12
5.29045e-12
1.3825e-11
2.34991e-11
2.28932e-11
2.75856e-11
6.59211e-11
8.13332e-11
5.4923e-11
3.60936e-11
3.86457e-11
3.85624e-11
2.29291e-11
2.34959e-11
1.67111e-11
7.82347e-12
1.39072e-11
5.35384e-12
6.02983e-12
5.9589e-12
4.6226e-12
5.04496e-12
1.68433e-11
6.77253e-12
7.58498e-12
6.38428e-12
1.59317e-11
1.02547e-11
7.61067e-12
9.96779e-12
1.75987e-11
1.80605e-11
3.13901e-11
2.92517e-11
5.34486e-11
5.42156e-11
3.1362e-11
2.03603e-11
1.89107e-11
2.15354e-11
1.62998e-11
4.4575e-11
2.59703e-11
1.39603e-11
3.26403e-11
1.63091e-11
3.3516e-11
2.99264e-11
4.46379e-11
5.5746e-11
3.25333e-11
2.01975e-11
5.04309e-11
5.85332e-11
5.56422e-11
7.01566e-11
5.60337e-11
3.00906e-11
3.41355e-11
4.1615e-11
6.43606e-11
9.35248e-11
5.73121e-11
2.71587e-11
2.43446e-11
2.56344e-11
4.97879e-11
7.36277e-11
6.94824e-11
4.90991e-11
3.4897e-11
5.42172e-11
5.11848e-11
7.05177e-11
3.72383e-11
2.46492e-11
2.407e-11
4.64608e-11
4.7892e-11
5.08869e-11
3.80342e-11
2.61477e-11
3.82637e-11
4.27108e-11
4.45675e-11
3.50041e-11
4.51988e-11
4.84419e-11
9.61059e-11
5.90427e-11
1.22451e-10
6.59988e-11
6.01297e-11
5.76603e-11
3.15429e-11
3.5722e-11
3.76902e-11
2.03111e-11
2.10737e-11
2.6444e-11
2.65987e-11
1.89611e-11
2.33792e-11
6.57925e-11
3.13811e-11
3.37723e-11
3.39062e-11
2.26128e-11
6.7829e-11
6.79154e-11
4.28073e-11
2.93879e-11
7.21676e-11
3.379e-11
3.06063e-11
5.16207e-11
1.92196e-11
3.14469e-11
1.68198e-11
2.62692e-11
2.80723e-11
2.44652e-11
3.59342e-11
1.90397e-11
2.39879e-11
6.03301e-11
7.81927e-11
3.06283e-11
2.76132e-11
3.01896e-11
2.69237e-11
4.06451e-11
6.01822e-11
7.62857e-11
5.17366e-11
6.62603e-11
4.03738e-11
4.46871e-11
8.02514e-11
3.68882e-11
2.90033e-11
5.90795e-11
3.61807e-11
5.72657e-11
2.95373e-11
1.80992e-11
2.30819e-11
2.53084e-11
1.48729e-11
3.21385e-11
2.65957e-11
2.13285e-11
2.1393e-11
1.73355e-11
2.19381e-11
2.60862e-11
1.74356e-11
3.10017e-11
1.17541e-11
8.51204e-12
1.55069e-11
9.37543e-12
6.95817e-12
7.8047e-12
1.93695e-11
1.04338e-11
7.89017e-12
2.40614e-11
3.25924e-11
1.6357e-11
1.22528e-11
2.09458e-11
1.44749e-11
1.32762e-11
9.58843e-12
1.16534e-11
1.07094e-11
1.66327e-11
2.7694e-11
2.30439e-11
3.35301e-11
3.29977e-11
1.803e-11
2.35215e-11
3.27322e-11
1.95264e-11
2.72939e-11
1.87345e-11
1.78416e-11
1.13614e-10
3.96e-11
3.56837e-11
5.08066e-11
6.92737e-11
5.8193e-11
3.06179e-11
3.455e-11
6.28475e-11
4.97707e-11
3.67583e-11
1.14067e-10
9.34647e-11
7.52467e-11
7.75776e-11
6.67102e-11
7.83224e-11
8.6899e-11
6.95614e-11
1.37325e-10
1.21628e-10
1.50785e-10
5.61547e-11
5.95305e-11
3.57938e-11
6.26409e-11
1.01307e-10
5.50321e-11
1.47793e-10
1.21172e-10
6.83422e-11
4.41439e-11
5.27625e-11
3.79473e-11
9.08788e-11
6.29844e-11
5.7297e-11
5.68378e-11
6.23721e-11
6.53437e-11
2.41741e-11
2.12895e-11
3.19275e-11
1.6435e-11
2.23039e-11
2.257e-11
1.96242e-11
3.23147e-11
3.57673e-11
4.18703e-11
3.05285e-11
5.95846e-11
5.57183e-11
5.56897e-11
5.80011e-11
4.11708e-11
5.28819e-11
4.32552e-11
7.5579e-11
1.13966e-10
1.94668e-10
8.51569e-11
2.62216e-11
1.89638e-11
4.08126e-11
3.39007e-11
6.35885e-11
7.44198e-11
3.14356e-11
3.07216e-11
6.07444e-11
5.88941e-11
7.65599e-11
8.34045e-11
7.12342e-11
5.68395e-11
4.98347e-12
4.46837e-12
8.74475e-12
1.09903e-11
9.04503e-12
7.3841e-12
2.02661e-11
3.48249e-11
3.37185e-11
4.09649e-11
9.84514e-11
1.22156e-10
8.31389e-11
5.484e-11
5.80073e-11
5.87215e-11
3.5098e-11
3.6104e-11
2.98733e-12
6.03648e-12
4.09617e-12
4.58244e-12
8.18332e-12
6.16246e-12
5.40688e-12
1.41819e-11
2.68521e-11
2.36238e-11
3.79681e-11
8.56014e-11
6.24352e-11
9.14025e-11
7.42827e-11
4.00225e-11
5.15754e-11
1.55698e-11
1.5715e-11
1.82971e-11
9.36423e-12
9.13712e-12
1.48313e-11
7.06242e-12
7.66754e-12
5.93377e-12
5.66045e-12
1.62411e-11
1.14295e-11
9.64165e-12
9.36861e-12
1.77376e-11
1.13856e-11
1.49395e-11
1.07389e-11
3.07244e-11
4.9593e-11
6.82349e-11
6.55468e-11
3.84578e-11
2.86991e-11
2.18204e-11
2.07636e-11
4.84671e-11
2.42832e-11
3.06775e-11
3.62374e-11
2.19235e-11
2.95006e-11
3.35631e-11
2.94553e-11
8.81734e-11
4.25466e-11
5.08835e-11
3.12932e-11
6.87896e-11
4.97148e-11
8.50796e-11
7.76058e-11
6.77462e-11
6.45205e-11
7.34806e-11
2.57137e-11
6.33289e-11
7.8822e-11
3.10685e-11
9.00124e-11
6.54062e-11
5.11586e-11
1.02548e-10
4.26729e-11
4.5126e-11
4.53404e-11
1.10554e-10
4.17953e-11
5.90538e-11
4.63447e-11
5.41847e-11
3.57347e-11
3.49953e-11
6.78392e-11
6.95741e-11
7.43324e-11
5.57992e-11
3.84811e-11
2.46302e-11
2.8991e-11
5.55413e-11
5.52844e-11
7.61834e-11
5.26167e-11
4.65664e-11
5.08285e-11
6.13131e-11
6.02501e-11
3.27045e-11
7.99756e-11
3.25652e-11
4.04684e-11
5.10942e-11
5.83118e-11
5.58844e-11
1.07658e-10
4.63715e-11
5.02337e-11
5.3573e-11
2.91477e-11
3.1241e-11
3.83378e-11
3.84858e-11
2.28857e-11
3.11215e-11
1.96538e-11
2.40877e-11
2.81851e-11
1.88983e-11
1.91599e-11
2.12727e-11
2.69432e-11
3.28203e-11
2.56427e-11
2.97812e-11
4.0156e-11
6.7033e-11
5.449e-11
4.68515e-11
5.64538e-11
2.47981e-11
3.42802e-11
2.55044e-11
2.26565e-11
7.86948e-11
4.45436e-11
2.43254e-11
1.59986e-11
3.86366e-11
2.41913e-11
2.84157e-11
3.13508e-11
2.1183e-11
3.97178e-11
3.98514e-11
1.81347e-11
1.42653e-11
2.81597e-11
5.45111e-11
5.3627e-11
1.02793e-10
7.80015e-11
8.23557e-11
6.69085e-11
7.72402e-11
5.78995e-11
7.62736e-11
6.0779e-11
5.86097e-11
8.12847e-11
7.85552e-11
5.66067e-11
4.66518e-11
4.19167e-11
2.59506e-11
2.08285e-11
3.51633e-11
2.59494e-11
1.30667e-11
1.99467e-11
1.65793e-11
1.4275e-11
1.44313e-11
1.17685e-11
1.99373e-11
2.20826e-11
1.64403e-11
3.10337e-11
2.0786e-11
2.2903e-11
1.64659e-11
1.28441e-11
1.15641e-11
9.16971e-12
7.20252e-12
1.18326e-11
6.67652e-12
1.11005e-11
5.88492e-12
1.06452e-11
1.14001e-11
2.72865e-11
2.3576e-11
2.54244e-11
1.67478e-11
1.58081e-11
1.58032e-11
1.08513e-11
1.35579e-11
1.41007e-11
1.27014e-11
1.39878e-11
9.77979e-12
9.8642e-12
2.77043e-11
2.5096e-11
2.00155e-11
2.93571e-11
3.11875e-11
7.64033e-11
2.34262e-11
2.65051e-11
2.18358e-11
1.82416e-11
3.61834e-11
3.85655e-11
3.08753e-11
3.6296e-11
4.89117e-11
1.0138e-10
4.28723e-11
9.13948e-11
3.17577e-11
5.09019e-11
8.06463e-11
7.5594e-11
5.12863e-11
4.91904e-11
9.77138e-11
6.92239e-11
1.15461e-10
6.05159e-11
5.46396e-11
5.77468e-11
4.27989e-11
1.21845e-10
6.35865e-11
8.32545e-11
8.75157e-11
1.29498e-10
1.47196e-10
1.27837e-10
1.46679e-10
2.8205e-10
1.83526e-10
1.11331e-10
4.59654e-11
2.58284e-11
6.45785e-11
5.9633e-11
5.5384e-11
8.47197e-11
1.89759e-10
2.36024e-10
1.26374e-10
3.73111e-11
1.27869e-10
4.97455e-11
2.77598e-11
9.56279e-11
2.97377e-11
7.139e-11
6.69212e-11
3.96165e-11
5.77333e-11
7.1572e-11
9.5168e-11
8.38078e-11
4.64632e-11
6.50306e-11
2.86571e-11
3.25133e-11
2.95282e-11
2.25926e-11
5.70661e-11
3.44364e-11
4.26626e-11
5.9669e-11
3.82438e-11
6.04731e-11
4.81593e-11
5.32931e-11
8.16229e-11
6.09957e-11
4.83813e-11
5.13619e-11
3.83307e-11
1.29707e-10
8.88784e-11
1.19029e-10
2.06422e-10
1.05629e-10
8.70981e-11
3.30706e-11
4.22949e-11
4.63599e-11
3.94449e-11
1.22937e-10
4.44541e-11
3.80348e-11
3.42051e-11
3.75708e-11
6.50913e-11
8.29517e-11
6.83075e-11
9.97711e-11
1.31856e-10
1.1642e-10
1.11729e-10
1.35776e-10
9.0038e-11
5.42253e-11
5.19377e-11
5.60911e-11
4.4531e-12
8.76175e-12
6.19838e-12
5.81859e-12
1.18416e-11
8.8222e-12
7.21563e-12
2.06881e-11
3.96512e-11
3.46498e-11
5.64007e-11
1.27843e-10
9.27886e-11
1.37234e-10
1.12369e-10
5.96991e-11
7.84857e-11
2.37917e-11
2.40984e-11
2.62373e-12
6.22697e-12
3.89136e-12
4.31472e-12
1.32365e-11
7.16055e-12
3.80771e-12
1.74141e-11
3.10809e-11
3.13387e-11
3.33275e-11
1.36136e-10
7.4667e-11
8.60576e-11
1.11259e-10
6.85012e-11
2.15845e-11
2.67213e-11
1.25348e-11
1.40595e-11
1.84287e-11
1.08733e-11
1.17169e-11
9.036e-12
8.6668e-12
7.32585e-12
6.24741e-12
1.93202e-11
1.45995e-11
1.41199e-11
9.39259e-12
1.76449e-11
2.23711e-11
1.60711e-11
1.57678e-11
4.36591e-11
4.67678e-11
7.61291e-11
6.3869e-11
7.1571e-11
3.60098e-11
4.563e-11
5.36476e-11
3.26638e-11
3.04921e-11
3.38159e-11
2.07395e-11
3.28549e-11
4.47739e-11
6.99904e-11
4.04989e-11
2.50104e-11
6.07908e-11
5.08726e-11
5.00458e-11
9.8638e-11
9.76622e-11
6.30652e-11
5.90192e-11
6.62954e-11
9.9356e-11
1.07064e-10
3.53944e-11
5.60417e-11
9.32392e-11
5.94592e-11
1.00463e-10
7.88679e-11
1.68337e-10
8.09078e-11
3.95857e-11
5.83592e-11
4.90826e-11
5.66776e-11
3.92391e-11
2.49563e-11
5.91031e-11
6.41976e-11
6.54204e-11
5.60625e-11
3.572e-11
4.20595e-11
8.08542e-11
8.04166e-11
1.11235e-10
7.73409e-11
6.85348e-11
3.05874e-11
5.17639e-11
7.05881e-11
7.96927e-11
6.90175e-11
7.31995e-11
7.9543e-11
5.64902e-11
5.25734e-11
5.07207e-11
4.45345e-11
5.64487e-11
6.77157e-11
7.38251e-11
1.12062e-10
7.62032e-11
4.0822e-11
4.60321e-11
5.45767e-11
6.91816e-11
5.46212e-11
3.28939e-11
4.63507e-11
2.82653e-11
3.48723e-11
4.09081e-11
2.24766e-11
1.9664e-11
1.95444e-11
2.13541e-11
2.37875e-11
1.9342e-11
3.15343e-11
2.73153e-11
3.0781e-11
4.66833e-11
8.30889e-11
5.66445e-11
2.86191e-11
6.88369e-11
8.79115e-11
7.58502e-11
3.13013e-11
1.90202e-11
2.71502e-11
4.09305e-11
1.58143e-11
2.6801e-11
1.34755e-11
8.63478e-11
3.24145e-10
3.7739e-11
5.31721e-11
1.95987e-11
2.15451e-11
5.60455e-11
5.09413e-11
3.87853e-11
3.84021e-11
4.30302e-11
3.78755e-11
1.56067e-11
2.95997e-11
3.4386e-11
1.69385e-11
3.32561e-11
1.45779e-11
1.30812e-11
1.14409e-11
2.06167e-11
4.49586e-11
7.83401e-11
5.51839e-11
7.65398e-11
1.23226e-10
8.99647e-11
6.6326e-11
7.49393e-11
5.7445e-11
5.0455e-11
7.71394e-11
3.75403e-11
8.3271e-11
5.1276e-11
3.02497e-11
5.05465e-11
3.07512e-11
2.88724e-11
1.81495e-11
3.5536e-11
1.74333e-11
1.8584e-11
1.86754e-11
1.27341e-11
1.70699e-11
2.66414e-11
1.62653e-11
3.11145e-11
1.78217e-11
8.08192e-12
1.84683e-11
6.55257e-12
8.78281e-12
6.61093e-12
1.2468e-11
1.08282e-11
1.14455e-11
1.04029e-11
9.41622e-12
1.28379e-11
4.08559e-12
7.62596e-12
1.45091e-11
6.60233e-12
2.91044e-11
2.21471e-11
2.85328e-11
2.25734e-11
2.75681e-11
1.68066e-11
1.03068e-11
1.05291e-11
1.30567e-11
1.52561e-11
1.4408e-11
1.71227e-11
1.23055e-11
9.87096e-12
9.9252e-12
8.94731e-12
3.53688e-11
5.72926e-11
3.2517e-11
3.18039e-11
4.53839e-11
2.97347e-11
2.48497e-11
1.10754e-10
3.18743e-11
3.64703e-11
2.30719e-11
3.77577e-11
5.72926e-11
3.73249e-11
3.55151e-11
3.42269e-11
4.78836e-11
4.89054e-11
4.65826e-11
6.54514e-11
4.48118e-11
4.03566e-11
5.51607e-11
6.2233e-11
5.76809e-11
8.77993e-11
5.80727e-11
7.23079e-11
5.02202e-11
8.02755e-11
7.07381e-11
3.53565e-11
8.50714e-11
9.46871e-11
9.85233e-11
8.33549e-11
4.5983e-11
1.03267e-10
5.09271e-11
1.24314e-10
4.19488e-11
9.99897e-11
1.54077e-10
1.19226e-10
1.00304e-10
9.89025e-11
5.53261e-11
1.34109e-10
1.82136e-10
1.36942e-10
1.90451e-10
1.37218e-10
3.07882e-10
2.06058e-10
1.1863e-10
4.56123e-11
4.8438e-11
5.83939e-11
4.13138e-11
8.07285e-11
1.26918e-10
1.57236e-10
1.83811e-10
1.70607e-10
7.00479e-11
1.2967e-10
1.17873e-10
7.06669e-11
3.8117e-11
9.64176e-11
3.24984e-11
4.05416e-11
6.3657e-11
4.22273e-11
4.90692e-11
7.15866e-11
1.30109e-10
5.48816e-11
6.65034e-11
3.02496e-11
3.6065e-11
4.85768e-11
6.70519e-11
8.8249e-11
5.06635e-11
7.1405e-11
9.61379e-11
9.38072e-11
4.8494e-11
5.34227e-11
3.25643e-11
5.01447e-11
9.20185e-11
2.20843e-10
6.86203e-11
8.31838e-11
7.01958e-11
1.25221e-10
9.4575e-11
1.93018e-10
8.8795e-11
2.22465e-11
4.82008e-11
4.67921e-11
4.81563e-11
4.14806e-11
5.77779e-11
3.72501e-11
5.10336e-11
4.02202e-11
2.59314e-11
5.34176e-11
2.64854e-11
1.63932e-10
1.12021e-10
5.50187e-11
1.86515e-10
1.02375e-10
1.09324e-10
7.8318e-11
7.60389e-11
8.02823e-11
1.20216e-10
4.35957e-11
3.66641e-11
5.82115e-11
1.09034e-10
3.73267e-11
3.91983e-12
9.23274e-12
5.84043e-12
5.66567e-12
1.92988e-11
1.02008e-11
5.10018e-12
2.55078e-11
4.59544e-11
4.60985e-11
4.93747e-11
2.03121e-10
1.10825e-10
1.29662e-10
1.66698e-10
1.03828e-10
3.2426e-11
4.06752e-11
1.91514e-11
2.15927e-11
3.54442e-12
6.63464e-12
3.96793e-12
4.33122e-12
4.9544e-12
1.31869e-11
3.64616e-12
1.06722e-11
1.73141e-11
3.48447e-11
3.03592e-11
3.75444e-11
1.32544e-10
1.44008e-10
4.78802e-11
1.08947e-10
7.81846e-11
1.10826e-10
7.37014e-11
1.81012e-11
2.151e-11
1.42015e-11
1.24917e-11
1.92533e-11
1.57778e-11
1.38477e-11
1.33886e-11
1.40307e-11
1.10894e-11
9.49176e-12
7.93994e-12
6.61898e-12
2.13127e-11
1.41864e-11
1.2494e-11
2.40076e-11
2.35927e-11
1.94052e-11
4.08015e-11
8.28225e-11
6.22738e-11
6.75517e-11
7.8875e-11
5.10897e-11
4.8471e-11
4.53272e-11
4.99056e-11
2.5307e-11
2.86687e-11
4.13009e-11
5.96653e-11
5.32771e-11
2.80893e-11
6.07447e-11
5.08819e-11
6.44624e-11
5.99467e-11
8.80558e-11
8.65171e-11
1.15852e-10
4.07579e-11
7.93666e-11
1.43804e-10
8.31143e-11
1.15069e-10
1.74195e-10
1.60109e-10
6.04324e-11
3.30317e-11
1.62994e-10
6.12876e-11
8.27537e-11
1.24599e-10
1.12457e-10
6.9217e-11
1.03325e-10
4.48847e-11
4.69297e-11
1.19986e-10
6.2308e-11
7.70277e-11
6.23999e-11
9.98518e-11
4.43769e-11
7.53319e-11
1.02895e-10
1.1638e-10
9.98903e-11
1.06396e-10
1.16322e-10
8.31036e-11
3.10548e-11
4.72937e-11
8.5928e-11
8.61439e-11
8.42748e-11
8.44522e-11
7.08333e-11
6.85333e-11
8.97039e-11
6.59716e-11
6.42964e-11
9.25611e-11
8.55731e-11
4.61845e-11
7.92238e-11
6.87816e-11
3.97204e-11
4.95339e-11
6.70317e-11
5.83446e-11
3.25633e-11
2.92143e-11
2.81157e-11
3.10699e-11
3.45859e-11
2.25044e-11
1.52629e-11
2.20472e-11
1.86224e-11
1.76819e-11
1.77488e-11
3.18081e-11
7.19497e-11
1.00263e-10
5.18614e-11
3.39646e-11
4.25024e-11
1.48807e-10
5.13193e-11
1.15468e-10
6.40567e-11
2.59376e-11
3.17206e-11
3.31702e-11
3.03781e-11
3.91564e-11
2.0688e-11
2.68182e-11
1.64506e-11
1.29209e-11
9.27171e-11
8.88193e-11
7.45723e-11
1.94487e-09
5.25893e-11
2.58634e-11
2.23354e-11
3.60459e-11
3.45019e-11
2.18191e-11
3.14811e-11
1.19782e-11
1.60981e-11
3.93831e-11
1.087e-11
1.02922e-11
4.40107e-11
1.42053e-10
8.32429e-11
9.73175e-11
8.10494e-11
9.96704e-11
7.28869e-11
7.85538e-11
5.17993e-11
5.7844e-11
6.10109e-11
2.37743e-11
7.43724e-11
4.93982e-11
1.01215e-10
2.73838e-11
6.26842e-11
3.49193e-11
3.25684e-11
2.16138e-11
4.29493e-11
2.17616e-11
2.45726e-11
1.86773e-11
2.60063e-11
2.98482e-11
1.74891e-11
2.39966e-11
7.59259e-12
1.06033e-11
1.86038e-11
7.71887e-12
1.23968e-11
5.84025e-12
8.80368e-12
1.36067e-11
1.01475e-11
9.72233e-12
1.39063e-11
1.44832e-11
8.76198e-12
5.24378e-12
3.25298e-12
9.01581e-12
9.95547e-12
1.34316e-11
1.32904e-11
6.81594e-12
2.91044e-11
1.91748e-11
3.11699e-11
2.77167e-11
6.72339e-12
1.72949e-11
1.60614e-11
1.63197e-11
2.44666e-11
1.41108e-11
8.02779e-12
6.36556e-12
3.55151e-11
2.86463e-11
2.43109e-10
2.39761e-11
2.9631e-11
4.87356e-11
3.68925e-11
2.36364e-11
6.89099e-11
4.35882e-11
4.33816e-11
2.27361e-11
2.86463e-11
4.28992e-11
2.74291e-11
3.05953e-11
4.89054e-11
4.89054e-11
4.43715e-11
5.62374e-11
4.51776e-11
4.45916e-11
2.91337e-11
7.65631e-11
4.34993e-11
8.78914e-11
8.62614e-11
1.03587e-10
6.74323e-11
8.03592e-11
9.68732e-11
5.18631e-11
6.71067e-11
6.87607e-11
3.25785e-11
4.98003e-11
2.4358e-11
1.21575e-10
8.91885e-11
1.09096e-10
1.34502e-10
7.26729e-11
3.40518e-11
8.58044e-11
1.37639e-10
5.75641e-11
1.33466e-10
7.35287e-11
1.13189e-10
1.66728e-10
1.17901e-10
5.33077e-11
1.73924e-10
2.12059e-10
1.55046e-10
2.49591e-10
3.02142e-10
2.44742e-10
1.63576e-10
3.24351e-10
1.80956e-10
2.68117e-10
1.95727e-10
2.49527e-10
1.07496e-10
8.68203e-11
9.72546e-11
4.39458e-11
5.42821e-11
9.54174e-11
2.63533e-10
2.89376e-10
3.21904e-10
1.58119e-10
7.19217e-11
8.90502e-11
1.37498e-10
3.36495e-10
6.10059e-11
1.74559e-10
4.4404e-11
9.07246e-11
4.89543e-11
1.1781e-10
1.35783e-10
7.32805e-11
5.76011e-11
3.06479e-11
4.23659e-11
7.90961e-11
5.25787e-11
5.39299e-11
1.54422e-10
8.58624e-11
2.83521e-11
7.60753e-11
8.17193e-11
1.1458e-10
5.01393e-11
4.8368e-11
4.59569e-11
3.96226e-11
1.58018e-10
9.71423e-11
7.41206e-11
9.11628e-11
7.18316e-11
1.58617e-10
1.03417e-10
7.91739e-11
1.25439e-10
1.08344e-10
2.11135e-10
4.87498e-11
3.43088e-11
3.01656e-11
2.87721e-11
3.25142e-11
6.5459e-11
3.28259e-11
1.0003e-10
3.09228e-11
3.89212e-11
2.68686e-11
6.92893e-11
2.09098e-11
1.12194e-10
2.22614e-10
1.12212e-10
1.87763e-10
1.43165e-10
1.32312e-10
1.19327e-10
1.12806e-10
8.44553e-11
9.77412e-11
1.29633e-10
2.28994e-10
6.23364e-11
3.05754e-11
2.951e-11
6.53925e-11
9.78749e-11
1.20754e-10
8.95249e-11
3.35218e-11
5.26623e-12
9.6849e-12
5.96866e-12
5.72352e-12
6.93245e-12
1.91863e-11
5.23414e-12
1.55704e-11
2.53223e-11
5.13607e-11
4.45523e-11
5.56213e-11
1.97668e-10
2.13945e-10
7.10187e-11
1.61979e-10
1.17683e-10
1.65853e-10
1.11429e-10
2.70446e-11
3.27406e-11
2.16768e-11
1.91553e-11
4.3486e-12
5.27899e-12
2.97302e-12
3.6981e-12
4.6196e-12
4.51489e-12
1.18691e-11
4.65198e-12
9.18001e-12
1.99694e-11
3.6387e-11
2.98339e-11
3.11322e-11
1.59233e-10
1.26703e-10
3.8812e-11
8.65815e-11
7.07122e-11
9.5659e-11
1.21542e-10
4.15217e-11
1.21385e-11
2.36265e-11
1.57045e-11
1.04106e-11
1.30256e-11
1.2954e-11
1.8534e-11
1.68456e-11
1.93917e-11
1.44976e-11
1.2046e-11
1.00781e-11
8.69705e-12
7.28788e-12
2.08779e-11
2.14817e-11
1.88168e-11
1.01313e-11
3.52316e-11
2.91534e-11
2.13491e-11
5.31221e-11
9.01834e-11
8.03585e-11
6.70288e-11
8.90532e-11
7.29942e-11
6.19765e-11
3.76787e-11
4.24568e-11
6.08191e-11
2.24116e-11
3.56827e-11
3.86003e-11
8.99318e-11
6.19306e-11
4.73426e-11
4.74213e-11
7.07123e-11
6.32522e-11
7.20119e-11
6.12561e-11
1.07891e-10
7.34468e-11
2.02529e-10
2.25242e-10
1.47737e-10
3.83943e-11
6.55122e-11
7.2106e-11
9.88414e-11
9.78254e-11
1.48321e-10
1.67562e-10
1.41799e-10
2.13358e-10
2.22072e-10