# Region type : patch solid:1:24
# Faces  :    106
# Area   :    9.347373e-05
# Time        	sum(phi)
0             	3.688462e-04
27            	3.688462e-04
