# vtk DataFile Version 2.0
DGS printing
ASCII
DATASET UNSTRUCTURED_GRID
POINTS  144  floats
21.26287 20.90860 20.09912 21.24938 20.90860 20.10337 21.24513 20.90860 20.08988 
21.25862 20.90860 20.08563 21.26287 19.90860 20.09912 21.24938 19.90860 20.10337 
21.24513 19.90860 20.08988 21.25862 19.90860 20.08563 21.25701 20.90860 20.10404 
21.24446 20.90860 20.09751 21.25099 20.90860 20.08496 21.26354 20.90860 20.09149 
21.25701 19.90860 20.10404 21.24446 19.90860 20.09751 21.25099 19.90860 20.08496 
21.26354 19.90860 20.09149 21.26287 20.40860 20.09912 21.24938 20.40860 20.10337 
21.24513 20.40860 20.08988 21.25862 20.40860 20.08563 21.26354 20.40860 20.09149 
21.24446 20.40860 20.09751 21.25701 20.40860 20.10404 21.25099 20.40860 20.08496 
21.27001 21.90860 20.11987 21.22863 21.90860 20.11051 21.23799 21.90860 20.06913 
21.27937 21.90860 20.07849 21.27001 20.90860 20.11987 21.22863 20.90860 20.11051 
21.23799 20.90860 20.06913 21.27937 20.90860 20.07849 21.24738 21.90860 20.12376 
21.22474 21.90860 20.08788 21.26062 21.90860 20.06524 21.28326 21.90860 20.10112 
21.24738 20.90860 20.12376 21.22474 20.90860 20.08788 21.26062 20.90860 20.06524 
21.28326 20.90860 20.10112 21.27001 21.40860 20.11987 21.22863 21.40860 20.11051 
21.23799 21.40860 20.06913 21.27937 21.40860 20.07849 21.28326 21.40860 20.10112 
21.22474 21.40860 20.08788 21.24738 21.40860 20.12376 21.26062 21.40860 20.06524 
21.30214 22.90860 20.10801 21.26751 22.90860 20.04636 21.20586 22.90860 20.08099 
21.24049 22.90860 20.14264 21.30214 23.90860 20.10801 21.26751 23.90860 20.04636 
21.20586 23.90860 20.08099 21.24049 23.90860 20.14264 21.29759 22.90860 20.07001 
21.22951 22.90860 20.05091 21.21041 22.90860 20.11899 21.27849 22.90860 20.13809 
21.29759 23.90860 20.07001 21.22951 23.90860 20.05091 21.21041 23.90860 20.11899 
21.27849 23.90860 20.13809 21.30214 23.40860 20.10801 21.26751 23.40860 20.04636 
21.20586 23.40860 20.08099 21.24049 23.40860 20.14264 21.27849 23.40860 20.13809 
21.22951 23.40860 20.05091 21.29759 23.40860 20.07001 21.21041 23.40860 20.11899 
21.29710 23.90860 20.11984 21.27934 23.90860 20.05140 21.21090 23.90860 20.06916 
21.22866 23.90860 20.13760 21.29710 26.90860 20.11984 21.27934 26.90860 20.05140 
21.21090 26.90860 20.06916 21.22866 26.90860 20.13760 21.30240 23.90860 20.08194 
21.24144 23.90860 20.04610 21.20560 23.90860 20.10706 21.26656 23.90860 20.14290 
21.30240 26.90860 20.08194 21.24144 26.90860 20.04610 21.20560 26.90860 20.10706 
21.26656 26.90860 20.14290 21.29710 25.40860 20.11984 21.27934 25.40860 20.05140 
21.21090 25.40860 20.06916 21.22866 25.40860 20.13760 21.26656 25.40860 20.14290 
21.24144 25.40860 20.04610 21.30240 25.40860 20.08194 21.20560 25.40860 20.10706 
21.27315 27.22820 20.14069 21.30019 27.22820 20.07535 21.23485 27.22820 20.04831 
21.20781 27.22820 20.11365 21.27315 28.22820 20.14069 21.30019 28.22820 20.07535 
21.23485 28.22820 20.04831 21.20781 28.22820 20.11365 21.30020 27.22820 20.11361 
21.27311 27.22820 20.04830 21.20780 27.22820 20.07539 21.23489 27.22820 20.14070 
21.30020 28.22820 20.11361 21.27311 28.22820 20.04830 21.20780 28.22820 20.07539 
21.23489 28.22820 20.14070 21.27315 27.72820 20.14069 21.30019 27.72820 20.07535 
21.23485 27.72820 20.04831 21.20781 27.72820 20.11365 21.23489 27.72820 20.14070 
21.27311 27.72820 20.04830 21.30020 27.72820 20.11361 21.20780 27.72820 20.07539 
21.30399 28.53440 20.09560 21.25510 28.53440 20.04451 21.20401 28.53440 20.09340 
21.25290 28.53440 20.14449 21.30399 29.53440 20.09560 21.25510 29.53440 20.04451 
21.20401 29.53440 20.09340 21.25290 29.53440 20.14449 21.29012 28.53440 20.05993 
21.21943 28.53440 20.05838 21.21788 28.53440 20.12907 21.28857 28.53440 20.13062 
21.29012 29.53440 20.05993 21.21943 29.53440 20.05838 21.21788 29.53440 20.12907 
21.28857 29.53440 20.13062 21.30399 29.03440 20.09560 21.25510 29.03440 20.04451 
21.20401 29.03440 20.09340 21.25290 29.03440 20.14449 21.28857 29.03440 20.13062 
21.21943 29.03440 20.05838 21.29012 29.03440 20.05993 21.21788 29.03440 20.12907 
CELLS  6   150
24 0 1 2 3 4 5 6 7 8 9 10 11 12 13 14 15 16 17 18 19 20 21 22 23
24 24 25 26 27 28 29 30 31 32 33 34 35 36 37 38 39 40 41 42 43 44 45 46 47
24 48 49 50 51 52 53 54 55 56 57 58 59 60 61 62 63 64 65 66 67 68 69 70 71
24 72 73 74 75 76 77 78 79 80 81 82 83 84 85 86 87 88 89 90 91 92 93 94 95
24 96 97 98 99 100 101 102 103 104 105 106 107 108 109 110 111 112 113 114 115 116 117 118 119
24 120 121 122 123 124 125 126 127 128 129 130 131 132 133 134 135 136 137 138 139 140 141 142 143
CELL_TYPES  6 
33
33
33
33
33
33
CELL_DATA  6 
SCALARS average_vol_activity_bq_m3 double 1 
LOOKUP_TABLE default
98.49695
84.88244
34.49975
9.08140
1.65591
0.77507
SCALARS total_activity_bq double 1 
LOOKUP_TABLE default
0.03094
0.24000
0.27096
0.21398
0.01301
0.00609
SCALARS mc_error double 1 
LOOKUP_TABLE default
0.00000
0.00000
0.00000
0.00000
0.00000
0.00000
