# Region type : patch face2
# Faces  :    136
# Area   :    9.249909e-05
# Time        	sum(Tr)
0             	0.000000e+00
29            	2.538639e-03
