# vtk DataFile Version 2.0
DGS printing
ASCII
DATASET UNSTRUCTURED_GRID
POINTS  240  floats
21.29172 20.79273 22.31800 21.26373 20.74528 22.31800 21.21628 20.77327 22.31800 
21.24427 20.82072 22.31800 21.29172 20.79273 21.59701 21.26373 20.74528 21.59701 
21.21628 20.77327 21.59701 21.24427 20.82072 21.59701 21.28756 20.76321 22.31800 
21.23421 20.74944 22.31800 21.22044 20.80279 22.31800 21.27379 20.81656 22.31800 
21.28756 20.76321 21.59701 21.23421 20.74944 21.59701 21.22044 20.80279 21.59701 
21.27379 20.81656 21.59701 21.29172 20.79273 21.95751 21.26373 20.74528 21.95751 
21.21628 20.77327 21.95751 21.24427 20.82072 21.95751 21.27379 20.81656 21.95751 
21.23421 20.74944 21.95751 21.28756 20.76321 21.95751 21.22044 20.80279 21.95751 
21.29213 20.79099 21.59700 21.26199 20.74487 21.59700 21.21587 20.77501 21.59700 
21.24601 20.82113 21.59700 21.29213 20.79099 20.87601 21.26199 20.74487 20.87601 
21.21587 20.77501 20.87601 21.24601 20.82113 20.87601 21.28662 20.76169 21.59700 
21.23269 20.75038 21.59700 21.22138 20.80431 21.59700 21.27531 20.81562 21.59700 
21.28662 20.76169 20.87601 21.23269 20.75038 20.87601 21.22138 20.80431 20.87601 
21.27531 20.81562 20.87601 21.29213 20.79099 21.23651 21.26199 20.74487 21.23651 
21.21587 20.77501 21.23651 21.24601 20.82113 21.23651 21.27531 20.81562 21.23651 
21.23269 20.75038 21.23651 21.28662 20.76169 21.23651 21.22138 20.80431 21.23651 
21.28182 19.81027 20.81800 21.28127 19.75518 20.81800 21.22618 19.75573 20.81800 
21.22673 19.81082 20.81800 21.28182 19.81027 19.37603 21.28127 19.75518 19.37603 
21.22618 19.75573 19.37603 21.22673 19.81082 19.37603 21.29296 19.78261 20.81800 
21.25361 19.74404 20.81800 21.21504 19.78339 20.81800 21.25439 19.82196 20.81800 
21.29296 19.78261 19.37603 21.25361 19.74404 19.37603 21.21504 19.78339 19.37603 
21.25439 19.82196 19.37603 21.28182 19.81027 20.09702 21.28127 19.75518 20.09702 
21.22618 19.75573 20.09702 21.22673 19.81082 20.09702 21.25439 19.82196 20.09702 
21.25361 19.74404 20.09702 21.29296 19.78261 20.09702 21.21504 19.78339 20.09702 
21.29152 20.79348 19.37600 21.24352 20.82052 19.37600 21.21648 20.77252 19.37600 
21.26448 20.74548 19.37600 21.29152 20.79348 20.81797 21.24352 20.82052 20.81797 
21.21648 20.77252 20.81797 21.26448 20.74548 20.81797 21.27312 20.81694 19.37600 
21.22006 20.80212 19.37600 21.23488 20.74906 19.37600 21.28794 20.76388 19.37600 
21.27312 20.81694 20.81797 21.22006 20.80212 20.81797 21.23488 20.74906 20.81797 
21.28794 20.76388 20.81797 21.29152 20.79348 20.09698 21.24352 20.82052 20.09698 
21.21648 20.77252 20.09698 21.26448 20.74548 20.09698 21.28794 20.76388 20.09698 
21.22006 20.80212 20.09698 21.27312 20.81694 20.09698 21.23488 20.74906 20.09698 
21.29217 20.79081 17.93410 21.24619 20.82117 17.93410 21.21583 20.77519 17.93410 
21.26181 20.74483 17.93410 21.29217 20.79081 19.37607 21.24619 20.82117 19.37607 
21.21583 20.77519 19.37607 21.26181 20.74483 19.37607 21.27547 20.81551 17.93410 
21.22149 20.80447 17.93410 21.23253 20.75049 17.93410 21.28651 20.76153 17.93410 
21.27547 20.81551 19.37607 21.22149 20.80447 19.37607 21.23253 20.75049 19.37607 
21.28651 20.76153 19.37607 21.29217 20.79081 18.65508 21.24619 20.82117 18.65508 
21.21583 20.77519 18.65508 21.26181 20.74483 18.65508 21.28651 20.76153 18.65508 
21.22149 20.80447 18.65508 21.27547 20.81551 18.65508 21.23253 20.75049 18.65508 
21.27388 21.81651 19.37600 21.22049 21.80288 19.37600 21.23412 21.74949 19.37600 
21.28751 21.76312 19.37600 21.27388 21.81651 20.81797 21.22049 21.80288 20.81797 
21.23412 21.74949 20.81797 21.28751 21.76312 20.81797 21.24436 21.82075 19.37600 
21.21625 21.77336 19.37600 21.26364 21.74525 19.37600 21.29175 21.79264 19.37600 
21.24436 21.82075 20.81797 21.21625 21.77336 20.81797 21.26364 21.74525 20.81797 
21.29175 21.79264 20.81797 21.27388 21.81651 20.09698 21.22049 21.80288 20.09698 
21.23412 21.74949 20.09698 21.28751 21.76312 20.09698 21.29175 21.79264 20.09698 
21.21625 21.77336 20.09698 21.24436 21.82075 20.09698 21.26364 21.74525 20.09698 
21.27540 22.81555 19.37600 21.22145 22.80440 19.37600 21.23260 22.75045 19.37600 
21.28655 22.76160 19.37600 21.27540 22.81555 20.81797 21.22145 22.80440 20.81797 
21.23260 22.75045 20.81797 21.28655 22.76160 20.81797 21.24611 22.82115 19.37600 
21.21585 22.77511 19.37600 21.26189 22.74485 19.37600 21.29215 22.79089 19.37600 
21.24611 22.82115 20.81797 21.21585 22.77511 20.81797 21.26189 22.74485 20.81797 
21.29215 22.79089 20.81797 21.27540 22.81555 20.09698 21.22145 22.80440 20.09698 
21.23260 22.75045 20.09698 21.28655 22.76160 20.09698 21.29215 22.79089 20.09698 
21.21585 22.77511 20.09698 21.24611 22.82115 20.09698 21.26189 22.74485 20.09698 
21.28214 23.80995 19.37600 21.22705 23.81114 19.37600 21.22586 23.75605 19.37600 
21.28095 23.75486 19.37600 21.28214 23.80995 22.31797 21.22705 23.81114 22.31797 
21.22586 23.75605 22.31797 21.28095 23.75486 22.31797 21.25484 23.82195 19.37600 
21.21505 23.78384 19.37600 21.25316 23.74405 19.37600 21.29295 23.78216 19.37600 
21.25484 23.82195 22.31797 21.21505 23.78384 22.31797 21.25316 23.74405 22.31797 
21.29295 23.78216 22.31797 21.28214 23.80995 20.84698 21.22705 23.81114 20.84698 
21.22586 23.75605 20.84698 21.28095 23.75486 20.84698 21.29295 23.78216 20.84698 
21.21505 23.78384 20.84698 21.25484 23.82195 20.84698 21.25316 23.74405 20.84698 
21.27562 20.81541 16.37600 21.22159 20.80462 16.37600 21.23238 20.75059 16.37600 
21.28641 20.76138 16.37600 21.27562 20.81541 17.81797 21.22159 20.80462 17.81797 
21.23238 20.75059 17.81797 21.28641 20.76138 17.81797 21.24637 20.82121 16.37600 
21.21579 20.77537 16.37600 21.26163 20.74479 16.37600 21.29221 20.79063 16.37600 
21.24637 20.82121 17.81797 21.21579 20.77537 17.81797 21.26163 20.74479 17.81797 
21.29221 20.79063 17.81797 21.27562 20.81541 17.09698 21.22159 20.80462 17.09698 
21.23238 20.75059 17.09698 21.28641 20.76138 17.09698 21.29221 20.79063 17.09698 
21.21579 20.77537 17.09698 21.24637 20.82121 17.09698 21.26163 20.74479 17.09698 
21.25501 23.32195 17.87600 21.21505 23.28401 17.87600 21.25299 23.24405 17.87600 
21.29295 23.28199 17.87600 21.25501 23.32195 19.31797 21.21505 23.28401 19.31797 
21.25299 23.24405 19.31797 21.29295 23.28199 19.31797 21.22717 23.31125 17.87600 
21.22575 23.25617 17.87600 21.28083 23.25475 17.87600 21.28225 23.30983 17.87600 
21.22717 23.31125 19.31797 21.22575 23.25617 19.31797 21.28083 23.25475 19.31797 
21.28225 23.30983 19.31797 21.25501 23.32195 18.59698 21.21505 23.28401 18.59698 
21.25299 23.24405 18.59698 21.29295 23.28199 18.59698 21.28225 23.30983 18.59698 
21.22575 23.25617 18.59698 21.22717 23.31125 18.59698 21.28083 23.25475 18.59698 
CELLS  10   250
24 0 1 2 3 4 5 6 7 8 9 10 11 12 13 14 15 16 17 18 19 20 21 22 23
24 24 25 26 27 28 29 30 31 32 33 34 35 36 37 38 39 40 41 42 43 44 45 46 47
24 48 49 50 51 52 53 54 55 56 57 58 59 60 61 62 63 64 65 66 67 68 69 70 71
24 72 73 74 75 76 77 78 79 80 81 82 83 84 85 86 87 88 89 90 91 92 93 94 95
24 96 97 98 99 100 101 102 103 104 105 106 107 108 109 110 111 112 113 114 115 116 117 118 119
24 120 121 122 123 124 125 126 127 128 129 130 131 132 133 134 135 136 137 138 139 140 141 142 143
24 144 145 146 147 148 149 150 151 152 153 154 155 156 157 158 159 160 161 162 163 164 165 166 167
24 168 169 170 171 172 173 174 175 176 177 178 179 180 181 182 183 184 185 186 187 188 189 190 191
24 192 193 194 195 196 197 198 199 200 201 202 203 204 205 206 207 208 209 210 211 212 213 214 215
24 216 217 218 219 220 221 222 223 224 225 226 227 228 229 230 231 232 233 234 235 236 237 238 239
CELL_TYPES  10 
33
33
33
33
33
33
33
33
33
33
CELL_DATA  10 
SCALARS node_id int 1 
LOOKUP_TABLE default
1
2
3
4
5
6
7
8
9
10
SCALARS average_vol_activity_bq_m3 double 1 
LOOKUP_TABLE default
9.92042e+01
9.76295e+01
8.72167e+01
9.46069e+01
9.02577e+01
7.15339e+01
8.28829e+01
5.61421e+02
8.28724e+01
4.38120e+02
SCALARS total_activity_bq double 1 
LOOKUP_TABLE default
3.41074e-01
3.35660e-01
5.99713e-01
6.50530e-01
6.20624e-01
4.91876e-01
5.69913e-01
7.87617e+00
5.69841e-01
3.01257e+00
SCALARS mc_error double 1 
LOOKUP_TABLE default
0.00000
0.00000
0.00000
0.00000
0.00000
0.00000
0.00000
0.00000
0.00137
0.00586
