# vtk DataFile Version 2.0
DGS printing
ASCII
DATASET UNSTRUCTURED_GRID
POINTS  240  floats
21.28476 20.80691 22.31800 21.27791 20.75224 22.31800 21.22324 20.75909 22.31800 
21.23009 20.81376 22.31800 21.28476 20.80691 21.59701 21.27791 20.75224 21.59701 
21.22324 20.75909 21.59701 21.23009 20.81376 21.59701 21.29266 20.77815 22.31800 
21.24915 20.74434 22.31800 21.21534 20.78785 22.31800 21.25885 20.82166 22.31800 
21.29266 20.77815 21.59701 21.24915 20.74434 21.59701 21.21534 20.78785 21.59701 
21.25885 20.82166 21.59701 21.28476 20.80691 21.95751 21.27791 20.75224 21.95751 
21.22324 20.75909 21.95751 21.23009 20.81376 21.95751 21.25885 20.82166 21.95751 
21.24915 20.74434 21.95751 21.29266 20.77815 21.95751 21.21534 20.78785 21.95751 
21.26746 20.81956 21.59700 21.29056 20.76954 21.59700 21.24054 20.74644 21.59700 
21.21744 20.79646 21.59700 21.26746 20.81956 20.87601 21.29056 20.76954 20.87601 
21.24054 20.74644 20.87601 21.21744 20.79646 20.87601 21.28937 20.79934 21.59700 
21.27034 20.74763 21.59700 21.21863 20.76666 21.59700 21.23766 20.81837 21.59700 
21.28937 20.79934 20.87601 21.27034 20.74763 20.87601 21.21863 20.76666 20.87601 
21.23766 20.81837 20.87601 21.26746 20.81956 21.23651 21.29056 20.76954 21.23651 
21.24054 20.74644 21.23651 21.21744 20.79646 21.23651 21.23766 20.81837 21.23651 
21.27034 20.74763 21.23651 21.28937 20.79934 21.23651 21.21863 20.76666 21.23651 
21.28359 19.80834 20.81800 21.27934 19.75341 20.81800 21.22441 19.75766 20.81800 
21.22866 19.81259 20.81800 21.28359 19.80834 19.37603 21.27934 19.75341 19.37603 
21.22441 19.75766 19.37603 21.22866 19.81259 19.37603 21.29284 19.77999 20.81800 
21.25099 19.74416 20.81800 21.21516 19.78601 20.81800 21.25701 19.82184 20.81800 
21.29284 19.77999 19.37603 21.25099 19.74416 19.37603 21.21516 19.78601 19.37603 
21.25701 19.82184 19.37603 21.28359 19.80834 20.09702 21.27934 19.75341 20.09702 
21.22441 19.75766 20.09702 21.22866 19.81259 20.09702 21.25701 19.82184 20.09702 
21.25099 19.74416 20.09702 21.29284 19.77999 20.09702 21.21516 19.78601 20.09702 
21.28660 20.80434 19.37600 21.23266 20.81560 19.37600 21.22140 20.76166 19.37600 
21.27534 20.75040 19.37600 21.28660 20.80434 20.81797 21.23266 20.81560 20.81797 
21.22140 20.76166 20.81797 21.27534 20.75040 20.81797 21.26196 20.82114 19.37600 
21.21586 20.79096 19.37600 21.24604 20.74486 19.37600 21.29214 20.77504 19.37600 
21.26196 20.82114 20.81797 21.21586 20.79096 20.81797 21.24604 20.74486 20.81797 
21.29214 20.77504 20.81797 21.28660 20.80434 20.09698 21.23266 20.81560 20.09698 
21.22140 20.76166 20.09698 21.27534 20.75040 20.09698 21.29214 20.77504 20.09698 
21.21586 20.79096 20.09698 21.26196 20.82114 20.09698 21.24604 20.74486 20.09698 
21.28031 20.81173 17.93410 21.22527 20.80931 17.93410 21.22769 20.75427 17.93410 
21.28273 20.75669 17.93410 21.28031 20.81173 19.37607 21.22527 20.80931 19.37607 
21.22769 20.75427 19.37607 21.28273 20.75669 19.37607 21.25229 20.82192 17.93410 
21.21508 20.78129 17.93410 21.25571 20.74408 17.93410 21.29292 20.78471 17.93410 
21.25229 20.82192 19.37607 21.21508 20.78129 19.37607 21.25571 20.74408 19.37607 
21.29292 20.78471 19.37607 21.28031 20.81173 18.65508 21.22527 20.80931 18.65508 
21.22769 20.75427 18.65508 21.28273 20.75669 18.65508 21.29292 20.78471 18.65508 
21.21508 20.78129 18.65508 21.25229 20.82192 18.65508 21.25571 20.74408 18.65508 
21.28223 21.80985 19.37600 21.22715 21.81123 19.37600 21.22577 21.75615 19.37600 
21.28085 21.75477 19.37600 21.28223 21.80985 20.81797 21.22715 21.81123 20.81797 
21.22577 21.75615 20.81797 21.28085 21.75477 20.81797 21.25497 21.82195 19.37600 
21.21505 21.78397 19.37600 21.25303 21.74405 19.37600 21.29295 21.78203 19.37600 
21.25497 21.82195 20.81797 21.21505 21.78397 20.81797 21.25303 21.74405 20.81797 
21.29295 21.78203 20.81797 21.28223 21.80985 20.09698 21.22715 21.81123 20.09698 
21.22577 21.75615 20.09698 21.28085 21.75477 20.09698 21.29295 21.78203 20.09698 
21.21505 21.78397 20.09698 21.25497 21.82195 20.09698 21.25303 21.74405 20.09698 
21.28793 22.80215 19.37600 21.23485 22.81693 19.37600 21.22007 22.76385 19.37600 
21.27315 22.74907 19.37600 21.28793 22.80215 20.81797 21.23485 22.81693 20.81797 
21.22007 22.76385 20.81797 21.27315 22.74907 20.81797 21.26445 22.82053 19.37600 
21.21647 22.79345 19.37600 21.24355 22.74547 19.37600 21.29153 22.77255 19.37600 
21.26445 22.82053 20.81797 21.21647 22.79345 20.81797 21.24355 22.74547 20.81797 
21.29153 22.77255 20.81797 21.28793 22.80215 20.09698 21.23485 22.81693 20.09698 
21.22007 22.76385 20.09698 21.27315 22.74907 20.09698 21.29153 22.77255 20.09698 
21.21647 22.79345 20.09698 21.26445 22.82053 20.09698 21.24355 22.74547 20.09698 
21.27536 23.81558 19.37600 21.22142 23.80436 19.37600 21.23264 23.75042 19.37600 
21.28658 23.76164 19.37600 21.27536 23.81558 22.31797 21.22142 23.80436 22.31797 
21.23264 23.75042 22.31797 21.28658 23.76164 22.31797 21.24607 23.82114 19.37600 
21.21586 23.77507 19.37600 21.26193 23.74486 19.37600 21.29214 23.79093 19.37600 
21.24607 23.82114 22.31797 21.21586 23.77507 22.31797 21.26193 23.74486 22.31797 
21.29214 23.79093 22.31797 21.27536 23.81558 20.84698 21.22142 23.80436 20.84698 
21.23264 23.75042 20.84698 21.28658 23.76164 20.84698 21.29214 23.79093 20.84698 
21.21586 23.77507 20.84698 21.24607 23.82114 20.84698 21.26193 23.74486 20.84698 
21.28777 20.80243 16.37600 21.23457 20.81677 16.37600 21.22023 20.76357 16.37600 
21.27343 20.74923 16.37600 21.28777 20.80243 17.81797 21.23457 20.81677 17.81797 
21.22023 20.76357 17.81797 21.27343 20.74923 17.81797 21.26414 20.82062 16.37600 
21.21638 20.79314 16.37600 21.24386 20.74538 16.37600 21.29162 20.77286 16.37600 
21.26414 20.82062 17.81797 21.21638 20.79314 17.81797 21.24386 20.74538 17.81797 
21.29162 20.77286 17.81797 21.28777 20.80243 17.09698 21.23457 20.81677 17.09698 
21.22023 20.76357 17.09698 21.27343 20.74923 17.09698 21.29162 20.77286 17.09698 
21.21638 20.79314 17.09698 21.26414 20.82062 17.09698 21.24386 20.74538 17.09698 
21.28671 23.30417 17.87600 21.23283 23.31571 17.87600 21.22129 23.26183 17.87600 
21.27517 23.25029 17.87600 21.28671 23.30417 19.31797 21.23283 23.31571 19.31797 
21.22129 23.26183 19.31797 21.27517 23.25029 19.31797 21.26216 23.32110 17.87600 
21.21590 23.29116 17.87600 21.24584 23.24490 17.87600 21.29210 23.27484 17.87600 
21.26216 23.32110 19.31797 21.21590 23.29116 19.31797 21.24584 23.24490 19.31797 
21.29210 23.27484 19.31797 21.28671 23.30417 18.59698 21.23283 23.31571 18.59698 
21.22129 23.26183 18.59698 21.27517 23.25029 18.59698 21.29210 23.27484 18.59698 
21.21590 23.29116 18.59698 21.26216 23.32110 18.59698 21.24584 23.24490 18.59698 
CELLS  10   250
24 0 1 2 3 4 5 6 7 8 9 10 11 12 13 14 15 16 17 18 19 20 21 22 23
24 24 25 26 27 28 29 30 31 32 33 34 35 36 37 38 39 40 41 42 43 44 45 46 47
24 48 49 50 51 52 53 54 55 56 57 58 59 60 61 62 63 64 65 66 67 68 69 70 71
24 72 73 74 75 76 77 78 79 80 81 82 83 84 85 86 87 88 89 90 91 92 93 94 95
24 96 97 98 99 100 101 102 103 104 105 106 107 108 109 110 111 112 113 114 115 116 117 118 119
24 120 121 122 123 124 125 126 127 128 129 130 131 132 133 134 135 136 137 138 139 140 141 142 143
24 144 145 146 147 148 149 150 151 152 153 154 155 156 157 158 159 160 161 162 163 164 165 166 167
24 168 169 170 171 172 173 174 175 176 177 178 179 180 181 182 183 184 185 186 187 188 189 190 191
24 192 193 194 195 196 197 198 199 200 201 202 203 204 205 206 207 208 209 210 211 212 213 214 215
24 216 217 218 219 220 221 222 223 224 225 226 227 228 229 230 231 232 233 234 235 236 237 238 239
CELL_TYPES  10 
33
33
33
33
33
33
33
33
33
33
CELL_DATA  10 
SCALARS node_id int 1 
LOOKUP_TABLE default
1
2
3
4
5
6
7
8
9
10
SCALARS average_vol_activity_bq_m3 double 1 
LOOKUP_TABLE default
9.92042e+01
9.76295e+01
8.72167e+01
9.46069e+01
9.02577e+01
7.15339e+01
8.28829e+01
5.61421e+02
8.27690e+01
4.40106e+02
SCALARS total_activity_bq double 1 
LOOKUP_TABLE default
3.41074e-01
3.35660e-01
5.99713e-01
6.50530e-01
6.20624e-01
4.91876e-01
5.69913e-01
7.87617e+00
5.69130e-01
3.02622e+00
SCALARS mc_error double 1 
LOOKUP_TABLE default
0.00000
0.00000
0.00000
0.00000
0.00000
0.00000
0.00000
0.00000
0.00141
0.00585
