# vtk DataFile Version 2.0
DGS printing
ASCII
DATASET UNSTRUCTURED_GRID
POINTS  48  floats
21.29177 23.79257 19.37600 21.24443 23.82077 19.37600 21.21623 23.77343 19.37600 
21.26357 23.74523 19.37600 21.29177 23.79257 22.31797 21.24443 23.82077 22.31797 
21.21623 23.77343 22.31797 21.26357 23.74523 22.31797 21.27394 23.81647 19.37600 
21.22053 23.80294 19.37600 21.23406 23.74953 19.37600 21.28747 23.76306 19.37600 
21.27394 23.81647 22.31797 21.22053 23.80294 22.31797 21.23406 23.74953 22.31797 
21.28747 23.76306 22.31797 21.29177 23.79257 20.84698 21.24443 23.82077 20.84698 
21.21623 23.77343 20.84698 21.26357 23.74523 20.84698 21.28747 23.76306 20.84698 
21.22053 23.80294 20.84698 21.27394 23.81647 20.84698 21.23406 23.74953 20.84698 
21.25819 23.32173 17.87600 21.21527 23.28719 17.87600 21.24981 23.24427 17.87600 
21.29273 23.27881 17.87600 21.25819 23.32173 19.31797 21.21527 23.28719 19.31797 
21.24981 23.24427 19.31797 21.29273 23.27881 19.31797 21.22958 23.31335 17.87600 
21.22365 23.25858 17.87600 21.27842 23.25265 17.87600 21.28435 23.30742 17.87600 
21.22958 23.31335 19.31797 21.22365 23.25858 19.31797 21.27842 23.25265 19.31797 
21.28435 23.30742 19.31797 21.25819 23.32173 18.59698 21.21527 23.28719 18.59698 
21.24981 23.24427 18.59698 21.29273 23.27881 18.59698 21.28435 23.30742 18.59698 
21.22365 23.25858 18.59698 21.22958 23.31335 18.59698 21.27842 23.25265 18.59698 
CELLS  2   50
24 0 1 2 3 4 5 6 7 8 9 10 11 12 13 14 15 16 17 18 19 20 21 22 23
24 24 25 26 27 28 29 30 31 32 33 34 35 36 37 38 39 40 41 42 43 44 45 46 47
CELL_TYPES  2 
33
33
CELL_DATA  2 
SCALARS node_id int 1 
LOOKUP_TABLE default
1
2
SCALARS average_vol_activity_bq_m3 double 1 
LOOKUP_TABLE default
5.61421e+02
4.36089e+02
SCALARS total_activity_bq double 1 
LOOKUP_TABLE default
7.87617e+00
2.99861e+00
SCALARS mc_error double 1 
LOOKUP_TABLE default
0.00000
0.00597
