# vtk DataFile Version 2.0
DGS printing
ASCII
DATASET UNSTRUCTURED_GRID
POINTS  48  floats
21.25746 23.82181 19.37600 21.21519 23.78646 19.37600 21.25054 23.74419 19.37600 
21.29281 23.77954 19.37600 21.25746 23.82181 22.31797 21.21519 23.78646 22.31797 
21.25054 23.74419 22.31797 21.29281 23.77954 22.31797 21.22901 23.81289 19.37600 
21.22411 23.75801 19.37600 21.27899 23.75311 19.37600 21.28389 23.80799 19.37600 
21.22901 23.81289 22.31797 21.22411 23.75801 22.31797 21.27899 23.75311 22.31797 
21.28389 23.80799 22.31797 21.25746 23.82181 20.84698 21.21519 23.78646 20.84698 
21.25054 23.74419 20.84698 21.29281 23.77954 20.84698 21.28389 23.80799 20.84698 
21.22411 23.75801 20.84698 21.22901 23.81289 20.84698 21.27899 23.75311 20.84698 
21.27902 23.31286 17.87600 21.22414 23.30802 17.87600 21.22898 23.25314 17.87600 
21.28386 23.25798 17.87600 21.27902 23.31286 19.31797 21.22414 23.30802 19.31797 
21.22898 23.25314 19.31797 21.28386 23.25798 19.31797 21.25058 23.32181 17.87600 
21.21519 23.27958 17.87600 21.25742 23.24419 17.87600 21.29281 23.28642 17.87600 
21.25058 23.32181 19.31797 21.21519 23.27958 19.31797 21.25742 23.24419 19.31797 
21.29281 23.28642 19.31797 21.27902 23.31286 18.59698 21.22414 23.30802 18.59698 
21.22898 23.25314 18.59698 21.28386 23.25798 18.59698 21.29281 23.28642 18.59698 
21.21519 23.27958 18.59698 21.25058 23.32181 18.59698 21.25742 23.24419 18.59698 
CELLS  2   50
24 0 1 2 3 4 5 6 7 8 9 10 11 12 13 14 15 16 17 18 19 20 21 22 23
24 24 25 26 27 28 29 30 31 32 33 34 35 36 37 38 39 40 41 42 43 44 45 46 47
CELL_TYPES  2 
33
33
CELL_DATA  2 
SCALARS node_id int 1 
LOOKUP_TABLE default
1
2
SCALARS average_vol_activity_bq_m3 double 1 
LOOKUP_TABLE default
5.61421e+02
4.39591e+02
SCALARS total_activity_bq double 1 
LOOKUP_TABLE default
7.87617e+00
3.02269e+00
SCALARS mc_error double 1 
LOOKUP_TABLE default
0.00000
0.00582
