# vtk DataFile Version 2.0
DGS printing
ASCII
DATASET UNSTRUCTURED_GRID
POINTS  48  floats
21.27729 23.81424 19.37600 21.22276 23.80629 19.37600 21.23071 23.75176 19.37600 
21.28524 23.75971 19.37600 21.27729 23.81424 22.31797 21.22276 23.80629 22.31797 
21.23071 23.75176 22.31797 21.28524 23.75971 22.31797 21.24838 23.82155 19.37600 
21.21545 23.77738 19.37600 21.25962 23.74445 19.37600 21.29255 23.78862 19.37600 
21.24838 23.82155 22.31797 21.21545 23.77738 22.31797 21.25962 23.74445 22.31797 
21.29255 23.78862 22.31797 21.27729 23.81424 20.84698 21.22276 23.80629 20.84698 
21.23071 23.75176 20.84698 21.28524 23.75971 20.84698 21.29255 23.78862 20.84698 
21.21545 23.77738 20.84698 21.24838 23.82155 20.84698 21.25962 23.74445 20.84698 
21.28156 23.31054 17.87600 21.22646 23.31056 17.87600 21.22644 23.25546 17.87600 
21.28154 23.25544 17.87600 21.28156 23.31054 19.31797 21.22646 23.31056 19.31797 
21.22644 23.25546 19.31797 21.28154 23.25544 19.31797 21.25402 23.32196 17.87600 
21.21504 23.28302 17.87600 21.25398 23.24404 17.87600 21.29296 23.28298 17.87600 
21.25402 23.32196 19.31797 21.21504 23.28302 19.31797 21.25398 23.24404 19.31797 
21.29296 23.28298 19.31797 21.28156 23.31054 18.59698 21.22646 23.31056 18.59698 
21.22644 23.25546 18.59698 21.28154 23.25544 18.59698 21.29296 23.28298 18.59698 
21.21504 23.28302 18.59698 21.25402 23.32196 18.59698 21.25398 23.24404 18.59698 
CELLS  2   50
24 0 1 2 3 4 5 6 7 8 9 10 11 12 13 14 15 16 17 18 19 20 21 22 23
24 24 25 26 27 28 29 30 31 32 33 34 35 36 37 38 39 40 41 42 43 44 45 46 47
CELL_TYPES  2 
33
33
CELL_DATA  2 
SCALARS average_vol_activity_bq_m3 double 1 
LOOKUP_TABLE default
413.49794
0.00000
SCALARS total_activity_bq double 1 
LOOKUP_TABLE default
5.80096
0.00000
SCALARS mc_error double 1 
LOOKUP_TABLE default
0.00000
0.00000
