# vtk DataFile Version 2.0
DGS printing
ASCII
DATASET UNSTRUCTURED_GRID
POINTS  48  floats
21.29244 23.78937 19.37600 21.24763 23.82144 19.37600 21.21556 23.77663 19.37600 
21.26037 23.74456 19.37600 21.29244 23.78937 22.31797 21.24763 23.82144 22.31797 
21.21556 23.77663 22.31797 21.26037 23.74456 22.31797 21.27668 23.81468 19.37600 
21.22232 23.80568 19.37600 21.23132 23.75132 19.37600 21.28568 23.76032 19.37600 
21.27668 23.81468 22.31797 21.22232 23.80568 22.31797 21.23132 23.75132 22.31797 
21.28568 23.76032 22.31797 21.29244 23.78937 20.84698 21.24763 23.82144 20.84698 
21.21556 23.77663 20.84698 21.26037 23.74456 20.84698 21.28568 23.76032 20.84698 
21.22232 23.80568 20.84698 21.27668 23.81468 20.84698 21.23132 23.75132 20.84698 
21.28250 23.30956 17.87600 21.22744 23.31150 17.87600 21.22550 23.25644 17.87600 
21.28056 23.25450 17.87600 21.28250 23.30956 19.31797 21.22744 23.31150 19.31797 
21.22550 23.25644 19.31797 21.28056 23.25450 19.31797 21.25537 23.32194 17.87600 
21.21506 23.28437 17.87600 21.25263 23.24406 17.87600 21.29294 23.28163 17.87600 
21.25537 23.32194 19.31797 21.21506 23.28437 19.31797 21.25263 23.24406 19.31797 
21.29294 23.28163 19.31797 21.28250 23.30956 18.59698 21.22744 23.31150 18.59698 
21.22550 23.25644 18.59698 21.28056 23.25450 18.59698 21.29294 23.28163 18.59698 
21.21506 23.28437 18.59698 21.25537 23.32194 18.59698 21.25263 23.24406 18.59698 
CELLS  2   50
24 0 1 2 3 4 5 6 7 8 9 10 11 12 13 14 15 16 17 18 19 20 21 22 23
24 24 25 26 27 28 29 30 31 32 33 34 35 36 37 38 39 40 41 42 43 44 45 46 47
CELL_TYPES  2 
33
33
CELL_DATA  2 
SCALARS node_id int 1 
LOOKUP_TABLE default
1
2
SCALARS average_vol_activity_bq_m3 double 1 
LOOKUP_TABLE default
4.31820e+01
0.00000e+00
SCALARS total_activity_bq double 1 
LOOKUP_TABLE default
6.05801e-01
0.00000e+00
SCALARS mc_error double 1 
LOOKUP_TABLE default
0.00000
0.00000
