# vtk DataFile Version 2.0
DGS printing
ASCII
DATASET UNSTRUCTURED_GRID
POINTS  48  floats
21.26580 23.82013 19.37600 21.21687 23.79480 19.37600 21.24220 23.74587 19.37600 
21.29113 23.77120 19.37600 21.26580 23.82013 22.31797 21.21687 23.79480 22.31797 
21.24220 23.74587 22.31797 21.29113 23.77120 22.31797 21.23609 23.81760 19.37600 
21.21940 23.76509 19.37600 21.27191 23.74840 19.37600 21.28860 23.80091 19.37600 
21.23609 23.81760 22.31797 21.21940 23.76509 22.31797 21.27191 23.74840 22.31797 
21.28860 23.80091 22.31797 21.26580 23.82013 20.84698 21.21687 23.79480 20.84698 
21.24220 23.74587 20.84698 21.29113 23.77120 20.84698 21.28860 23.80091 20.84698 
21.21940 23.76509 20.84698 21.23609 23.81760 20.84698 21.27191 23.74840 20.84698 
21.28203 23.31006 17.87600 21.22694 23.31103 17.87600 21.22597 23.25594 17.87600 
21.28106 23.25497 17.87600 21.28203 23.31006 19.31797 21.22694 23.31103 19.31797 
21.22597 23.25594 19.31797 21.28106 23.25497 19.31797 21.25468 23.32195 17.87600 
21.21505 23.28368 17.87600 21.25332 23.24405 17.87600 21.29295 23.28232 17.87600 
21.25468 23.32195 19.31797 21.21505 23.28368 19.31797 21.25332 23.24405 19.31797 
21.29295 23.28232 19.31797 21.28203 23.31006 18.59698 21.22694 23.31103 18.59698 
21.22597 23.25594 18.59698 21.28106 23.25497 18.59698 21.29295 23.28232 18.59698 
21.21505 23.28368 18.59698 21.25468 23.32195 18.59698 21.25332 23.24405 18.59698 
CELLS  2   50
24 0 1 2 3 4 5 6 7 8 9 10 11 12 13 14 15 16 17 18 19 20 21 22 23
24 24 25 26 27 28 29 30 31 32 33 34 35 36 37 38 39 40 41 42 43 44 45 46 47
CELL_TYPES  2 
33
33
CELL_DATA  2 
SCALARS node_id int 1 
LOOKUP_TABLE default
1
2
SCALARS average_vol_activity_bq_m3 double 1 
LOOKUP_TABLE default
5.61421e+02
4.37072e+02
SCALARS total_activity_bq double 1 
LOOKUP_TABLE default
7.87617e+00
3.00536e+00
SCALARS mc_error double 1 
LOOKUP_TABLE default
0.00000
0.00000
