# vtk DataFile Version 2.0
DGS printing
ASCII
DATASET UNSTRUCTURED_GRID
POINTS  48  floats
21.29091 23.79546 19.37600 21.24154 23.81991 19.37600 21.21709 23.77054 19.37600 
21.26646 23.74609 19.37600 21.29091 23.79546 22.31797 21.24154 23.81991 22.31797 
21.21709 23.77054 22.31797 21.26646 23.74609 22.31797 21.27129 23.81791 19.37600 
21.21909 23.80029 19.37600 21.23671 23.74809 19.37600 21.28891 23.76571 19.37600 
21.27129 23.81791 22.31797 21.21909 23.80029 22.31797 21.23671 23.74809 22.31797 
21.28891 23.76571 22.31797 21.29091 23.79546 20.84698 21.24154 23.81991 20.84698 
21.21709 23.77054 20.84698 21.26646 23.74609 20.84698 21.28891 23.76571 20.84698 
21.21909 23.80029 20.84698 21.27129 23.81791 20.84698 21.23671 23.74809 20.84698 
21.26470 23.32046 17.87600 21.21654 23.29370 17.87600 21.24330 23.24554 17.87600 
21.29146 23.27230 17.87600 21.26470 23.32046 19.31797 21.21654 23.29370 19.31797 
21.24330 23.24554 19.31797 21.29146 23.27230 19.31797 21.23508 23.31706 17.87600 
21.21994 23.26408 17.87600 21.27292 23.24894 17.87600 21.28806 23.30192 17.87600 
21.23508 23.31706 19.31797 21.21994 23.26408 19.31797 21.27292 23.24894 19.31797 
21.28806 23.30192 19.31797 21.26470 23.32046 18.59698 21.21654 23.29370 18.59698 
21.24330 23.24554 18.59698 21.29146 23.27230 18.59698 21.28806 23.30192 18.59698 
21.21994 23.26408 18.59698 21.23508 23.31706 18.59698 21.27292 23.24894 18.59698 
CELLS  2   50
24 0 1 2 3 4 5 6 7 8 9 10 11 12 13 14 15 16 17 18 19 20 21 22 23
24 24 25 26 27 28 29 30 31 32 33 34 35 36 37 38 39 40 41 42 43 44 45 46 47
CELL_TYPES  2 
33
33
CELL_DATA  2 
SCALARS node_id int 1 
LOOKUP_TABLE default
1
2
SCALARS average_vol_activity_bq_m3 double 1 
LOOKUP_TABLE default
4.13498e+02
0.00000e+00
SCALARS total_activity_bq double 1 
LOOKUP_TABLE default
5.80096e+00
0.00000e+00
SCALARS mc_error double 1 
LOOKUP_TABLE default
0.00000
0.00000
