# vtk DataFile Version 2.0
DGS printing
ASCII
DATASET UNSTRUCTURED_GRID
POINTS  48  floats
21.28530 23.80620 19.37600 21.23080 23.81430 19.37600 21.22270 23.75980 19.37600 
21.27720 23.75170 19.37600 21.28530 23.80620 22.31797 21.23080 23.81430 22.31797 
21.22270 23.75980 22.31797 21.27720 23.75170 22.31797 21.25972 23.82154 19.37600 
21.21546 23.78872 19.37600 21.24828 23.74446 19.37600 21.29254 23.77728 19.37600 
21.25972 23.82154 22.31797 21.21546 23.78872 22.31797 21.24828 23.74446 22.31797 
21.29254 23.77728 22.31797 21.28530 23.80620 20.84698 21.23080 23.81430 20.84698 
21.22270 23.75980 20.84698 21.27720 23.75170 20.84698 21.29254 23.77728 20.84698 
21.21546 23.78872 20.84698 21.25972 23.82154 20.84698 21.24828 23.74446 20.84698 
21.28057 23.31149 17.87600 21.22551 23.30957 17.87600 21.22743 23.25451 17.87600 
21.28249 23.25643 17.87600 21.28057 23.31149 19.31797 21.22551 23.30957 19.31797 
21.22743 23.25451 19.31797 21.28249 23.25643 19.31797 21.25265 23.32194 17.87600 
21.21506 23.28165 17.87600 21.25535 23.24406 17.87600 21.29294 23.28435 17.87600 
21.25265 23.32194 19.31797 21.21506 23.28165 19.31797 21.25535 23.24406 19.31797 
21.29294 23.28435 19.31797 21.28057 23.31149 18.59698 21.22551 23.30957 18.59698 
21.22743 23.25451 18.59698 21.28249 23.25643 18.59698 21.29294 23.28435 18.59698 
21.21506 23.28165 18.59698 21.25265 23.32194 18.59698 21.25535 23.24406 18.59698 
CELLS  2   50
24 0 1 2 3 4 5 6 7 8 9 10 11 12 13 14 15 16 17 18 19 20 21 22 23
24 24 25 26 27 28 29 30 31 32 33 34 35 36 37 38 39 40 41 42 43 44 45 46 47
CELL_TYPES  2 
33
33
CELL_DATA  2 
SCALARS node_id int 1 
LOOKUP_TABLE default
1
2
SCALARS average_vol_activity_bq_m3 double 1 
LOOKUP_TABLE default
4.13498e+02
0.00000e+00
SCALARS total_activity_bq double 1 
LOOKUP_TABLE default
5.80096e+00
0.00000e+00
SCALARS mc_error double 1 
LOOKUP_TABLE default
0.00000
0.00000
