# vtk DataFile Version 2.0
DGS printing
ASCII
DATASET UNSTRUCTURED_GRID
POINTS  48  floats
21.27267 23.81719 19.37600 21.21981 23.80167 19.37600 21.23533 23.74881 19.37600 
21.28819 23.76433 19.37600 21.27267 23.81719 22.31797 21.21981 23.80167 22.31797 
21.23533 23.74881 22.31797 21.28819 23.76433 22.31797 21.24303 23.82038 19.37600 
21.21662 23.77203 19.37600 21.26497 23.74562 19.37600 21.29138 23.79397 19.37600 
21.24303 23.82038 22.31797 21.21662 23.77203 22.31797 21.26497 23.74562 22.31797 
21.29138 23.79397 22.31797 21.27267 23.81719 20.84698 21.21981 23.80167 20.84698 
21.23533 23.74881 20.84698 21.28819 23.76433 20.84698 21.29138 23.79397 20.84698 
21.21662 23.77203 20.84698 21.24303 23.82038 20.84698 21.26497 23.74562 20.84698 
21.28422 23.30759 17.87600 21.22941 23.31322 17.87600 21.22378 23.25841 17.87600 
21.27859 23.25278 17.87600 21.28422 23.30759 19.31797 21.22941 23.31322 19.31797 
21.22378 23.25841 19.31797 21.27859 23.25278 19.31797 21.25798 23.32176 17.87600 
21.21524 23.28698 17.87600 21.25002 23.24424 17.87600 21.29276 23.27902 17.87600 
21.25798 23.32176 19.31797 21.21524 23.28698 19.31797 21.25002 23.24424 19.31797 
21.29276 23.27902 19.31797 21.28422 23.30759 18.59698 21.22941 23.31322 18.59698 
21.22378 23.25841 18.59698 21.27859 23.25278 18.59698 21.29276 23.27902 18.59698 
21.21524 23.28698 18.59698 21.25798 23.32176 18.59698 21.25002 23.24424 18.59698 
CELLS  2   50
24 0 1 2 3 4 5 6 7 8 9 10 11 12 13 14 15 16 17 18 19 20 21 22 23
24 24 25 26 27 28 29 30 31 32 33 34 35 36 37 38 39 40 41 42 43 44 45 46 47
CELL_TYPES  2 
33
33
CELL_DATA  2 
SCALARS average_vol_activity_bq_m3 double 1 
LOOKUP_TABLE default
561.42083
437.07203
SCALARS total_activity_bq double 1 
LOOKUP_TABLE default
7.87617
3.00536
SCALARS mc_error double 1 
LOOKUP_TABLE default
0.00000
0.00000
