# vtk DataFile Version 2.0
DGS printing
ASCII
DATASET UNSTRUCTURED_GRID
POINTS  48  floats
21.28538 23.80610 19.37600 21.23090 23.81438 19.37600 21.22262 23.75990 19.37600 
21.27710 23.75162 19.37600 21.28538 23.80610 22.31797 21.23090 23.81438 22.31797 
21.22262 23.75990 22.31797 21.27710 23.75162 22.31797 21.25985 23.82152 19.37600 
21.21548 23.78885 19.37600 21.24815 23.74448 19.37600 21.29252 23.77715 19.37600 
21.25985 23.82152 22.31797 21.21548 23.78885 22.31797 21.24815 23.74448 22.31797 
21.29252 23.77715 22.31797 21.28538 23.80610 20.84698 21.23090 23.81438 20.84698 
21.22262 23.75990 20.84698 21.27710 23.75162 20.84698 21.29252 23.77715 20.84698 
21.21548 23.78885 20.84698 21.25985 23.82152 20.84698 21.24815 23.74448 20.84698 
21.29204 23.29143 17.87600 21.24557 23.32104 17.87600 21.21596 23.27457 17.87600 
21.26243 23.24496 17.87600 21.29204 23.29143 19.31797 21.24557 23.32104 19.31797 
21.21596 23.27457 19.31797 21.26243 23.24496 19.31797 21.27494 23.31586 17.87600 
21.22114 23.30394 17.87600 21.23306 23.25014 17.87600 21.28686 23.26206 17.87600 
21.27494 23.31586 19.31797 21.22114 23.30394 19.31797 21.23306 23.25014 19.31797 
21.28686 23.26206 19.31797 21.29204 23.29143 18.59698 21.24557 23.32104 18.59698 
21.21596 23.27457 18.59698 21.26243 23.24496 18.59698 21.28686 23.26206 18.59698 
21.22114 23.30394 18.59698 21.27494 23.31586 18.59698 21.23306 23.25014 18.59698 
CELLS  2   50
24 0 1 2 3 4 5 6 7 8 9 10 11 12 13 14 15 16 17 18 19 20 21 22 23
24 24 25 26 27 28 29 30 31 32 33 34 35 36 37 38 39 40 41 42 43 44 45 46 47
CELL_TYPES  2 
33
33
CELL_DATA  2 
SCALARS average_vol_activity_bq_m3 double 1 
LOOKUP_TABLE default
561.42083
436.08913
SCALARS total_activity_bq double 1 
LOOKUP_TABLE default
7.87617
2.99861
SCALARS mc_error double 1 
LOOKUP_TABLE default
0.00000
0.00597
