# vtk DataFile Version 2.0
DGS printing
ASCII
DATASET UNSTRUCTURED_GRID
POINTS  48  floats
21.28362 23.80830 19.37600 21.22870 23.81262 19.37600 21.22438 23.75770 19.37600 
21.27930 23.75338 19.37600 21.28362 23.80830 22.31797 21.22870 23.81262 22.31797 
21.22438 23.75770 22.31797 21.27930 23.75338 22.31797 21.25705 23.82184 19.37600 
21.21516 23.78605 19.37600 21.25095 23.74416 19.37600 21.29284 23.77995 19.37600 
21.25705 23.82184 22.31797 21.21516 23.78605 22.31797 21.25095 23.74416 22.31797 
21.29284 23.77995 22.31797 21.28362 23.80830 20.84698 21.22870 23.81262 20.84698 
21.22438 23.75770 20.84698 21.27930 23.75338 20.84698 21.29284 23.77995 20.84698 
21.21516 23.78605 20.84698 21.25705 23.82184 20.84698 21.25095 23.74416 20.84698 
21.27897 23.31291 17.87600 21.22409 23.30797 17.87600 21.22903 23.25309 17.87600 
21.28391 23.25803 17.87600 21.27897 23.31291 19.31797 21.22409 23.30797 19.31797 
21.22903 23.25309 19.31797 21.28391 23.25803 19.31797 21.25050 23.32180 17.87600 
21.21520 23.27950 17.87600 21.25750 23.24420 17.87600 21.29280 23.28650 17.87600 
21.25050 23.32180 19.31797 21.21520 23.27950 19.31797 21.25750 23.24420 19.31797 
21.29280 23.28650 19.31797 21.27897 23.31291 18.59698 21.22409 23.30797 18.59698 
21.22903 23.25309 18.59698 21.28391 23.25803 18.59698 21.29280 23.28650 18.59698 
21.21520 23.27950 18.59698 21.25050 23.32180 18.59698 21.25750 23.24420 18.59698 
CELLS  2   50
24 0 1 2 3 4 5 6 7 8 9 10 11 12 13 14 15 16 17 18 19 20 21 22 23
24 24 25 26 27 28 29 30 31 32 33 34 35 36 37 38 39 40 41 42 43 44 45 46 47
CELL_TYPES  2 
33
33
CELL_DATA  2 
SCALARS average_vol_activity_bq_m3 double 1 
LOOKUP_TABLE default
413.49794
0.00000
SCALARS total_activity_bq double 1 
LOOKUP_TABLE default
5.80096
0.00000
SCALARS mc_error double 1 
LOOKUP_TABLE default
0.00000
0.00000
