# vtk DataFile Version 2.0
DGS printing
ASCII
DATASET UNSTRUCTURED_GRID
POINTS  48  floats
21.28916 23.79978 19.37600 21.23722 23.81816 19.37600 21.21884 23.76622 19.37600 
21.27078 23.74784 19.37600 21.28916 23.79978 22.31797 21.23722 23.81816 22.31797 
21.21884 23.76622 22.31797 21.27078 23.74784 22.31797 21.26700 23.81973 19.37600 
21.21727 23.79600 19.37600 21.24100 23.74627 19.37600 21.29073 23.77000 19.37600 
21.26700 23.81973 22.31797 21.21727 23.79600 22.31797 21.24100 23.74627 22.31797 
21.29073 23.77000 22.31797 21.28916 23.79978 20.84698 21.23722 23.81816 20.84698 
21.21884 23.76622 20.84698 21.27078 23.74784 20.84698 21.29073 23.77000 20.84698 
21.21727 23.79600 20.84698 21.26700 23.81973 20.84698 21.24100 23.74627 20.84698 
21.28333 23.30865 17.87600 21.22835 23.31233 17.87600 21.22467 23.25735 17.87600 
21.27965 23.25367 17.87600 21.28333 23.30865 19.31797 21.22835 23.31233 19.31797 
21.22467 23.25735 19.31797 21.27965 23.25367 19.31797 21.25660 23.32187 17.87600 
21.21513 23.28560 17.87600 21.25140 23.24413 17.87600 21.29287 23.28040 17.87600 
21.25660 23.32187 19.31797 21.21513 23.28560 19.31797 21.25140 23.24413 19.31797 
21.29287 23.28040 19.31797 21.28333 23.30865 18.59698 21.22835 23.31233 18.59698 
21.22467 23.25735 18.59698 21.27965 23.25367 18.59698 21.29287 23.28040 18.59698 
21.21513 23.28560 18.59698 21.25660 23.32187 18.59698 21.25140 23.24413 18.59698 
CELLS  2   50
24 0 1 2 3 4 5 6 7 8 9 10 11 12 13 14 15 16 17 18 19 20 21 22 23
24 24 25 26 27 28 29 30 31 32 33 34 35 36 37 38 39 40 41 42 43 44 45 46 47
CELL_TYPES  2 
33
33
CELL_DATA  2 
SCALARS node_id int 1 
LOOKUP_TABLE default
1
2
SCALARS average_vol_activity_bq_m3 double 1 
LOOKUP_TABLE default
5.61421e+02
4.37072e+02
SCALARS total_activity_bq double 1 
LOOKUP_TABLE default
7.87617e+00
3.00536e+00
SCALARS mc_error double 1 
LOOKUP_TABLE default
0.00000
0.00000
