# vtk DataFile Version 2.0
DGS printing
ASCII
DATASET UNSTRUCTURED_GRID
POINTS  48  floats
21.26287 23.82094 19.37600 21.21606 23.79187 19.37600 21.24513 23.74506 19.37600 
21.29194 23.77413 19.37600 21.26287 23.82094 22.31797 21.21606 23.79187 22.31797 
21.24513 23.74506 22.31797 21.29194 23.77413 22.31797 21.23344 23.81610 19.37600 
21.22090 23.76244 19.37600 21.27456 23.74990 19.37600 21.28710 23.80356 19.37600 
21.23344 23.81610 22.31797 21.22090 23.76244 22.31797 21.27456 23.74990 22.31797 
21.28710 23.80356 22.31797 21.26287 23.82094 20.84698 21.21606 23.79187 20.84698 
21.24513 23.74506 20.84698 21.29194 23.77413 20.84698 21.28710 23.80356 20.84698 
21.22090 23.76244 20.84698 21.23344 23.81610 20.84698 21.27456 23.74990 20.84698 
21.29098 23.29525 17.87600 21.24175 23.31998 17.87600 21.21702 23.27075 17.87600 
21.26625 23.24602 17.87600 21.29098 23.29525 19.31797 21.24175 23.31998 19.31797 
21.21702 23.27075 19.31797 21.26625 23.24602 19.31797 21.27149 23.31781 17.87600 
21.21919 23.30049 17.87600 21.23651 23.24819 17.87600 21.28881 23.26551 17.87600 
21.27149 23.31781 19.31797 21.21919 23.30049 19.31797 21.23651 23.24819 19.31797 
21.28881 23.26551 19.31797 21.29098 23.29525 18.59698 21.24175 23.31998 18.59698 
21.21702 23.27075 18.59698 21.26625 23.24602 18.59698 21.28881 23.26551 18.59698 
21.21919 23.30049 18.59698 21.27149 23.31781 18.59698 21.23651 23.24819 18.59698 
CELLS  2   50
24 0 1 2 3 4 5 6 7 8 9 10 11 12 13 14 15 16 17 18 19 20 21 22 23
24 24 25 26 27 28 29 30 31 32 33 34 35 36 37 38 39 40 41 42 43 44 45 46 47
CELL_TYPES  2 
33
33
CELL_DATA  2 
SCALARS average_vol_activity_bq_m3 double 1 
LOOKUP_TABLE default
561.42083
437.69903
SCALARS total_activity_bq double 1 
LOOKUP_TABLE default
7.87617
3.00968
SCALARS mc_error double 1 
LOOKUP_TABLE default
0.00000
0.00585
