# vtk DataFile Version 2.0
DGS printing
ASCII
DATASET UNSTRUCTURED_GRID
POINTS  48  floats
21.28244 23.80963 19.37600 21.22737 23.81144 19.37600 21.22556 23.75637 19.37600 
21.28063 23.75456 19.37600 21.28244 23.80963 22.31797 21.22737 23.81144 22.31797 
21.22556 23.75637 22.31797 21.28063 23.75456 22.31797 21.25528 23.82194 19.37600 
21.21506 23.78428 19.37600 21.25272 23.74406 19.37600 21.29294 23.78172 19.37600 
21.25528 23.82194 22.31797 21.21506 23.78428 22.31797 21.25272 23.74406 22.31797 
21.29294 23.78172 22.31797 21.28244 23.80963 20.84698 21.22737 23.81144 20.84698 
21.22556 23.75637 20.84698 21.28063 23.75456 20.84698 21.29294 23.78172 20.84698 
21.21506 23.78428 20.84698 21.25528 23.82194 20.84698 21.25272 23.74406 20.84698 
21.27851 23.31329 17.87600 21.22371 23.30751 17.87600 21.22949 23.25271 17.87600 
21.28429 23.25849 17.87600 21.27851 23.31329 19.31797 21.22371 23.30751 19.31797 
21.22949 23.25271 19.31797 21.28429 23.25849 19.31797 21.24991 23.32175 17.87600 
21.21525 23.27891 17.87600 21.25809 23.24425 17.87600 21.29275 23.28709 17.87600 
21.24991 23.32175 19.31797 21.21525 23.27891 19.31797 21.25809 23.24425 19.31797 
21.29275 23.28709 19.31797 21.27851 23.31329 18.59698 21.22371 23.30751 18.59698 
21.22949 23.25271 18.59698 21.28429 23.25849 18.59698 21.29275 23.28709 18.59698 
21.21525 23.27891 18.59698 21.24991 23.32175 18.59698 21.25809 23.24425 18.59698 
CELLS  2   50
24 0 1 2 3 4 5 6 7 8 9 10 11 12 13 14 15 16 17 18 19 20 21 22 23
24 24 25 26 27 28 29 30 31 32 33 34 35 36 37 38 39 40 41 42 43 44 45 46 47
CELL_TYPES  2 
33
33
CELL_DATA  2 
SCALARS average_vol_activity_bq_m3 double 1 
LOOKUP_TABLE default
43.18204
0.00000
SCALARS total_activity_bq double 1 
LOOKUP_TABLE default
0.60580
0.00000
SCALARS mc_error double 1 
LOOKUP_TABLE default
0.00000
0.00000
