# vtk DataFile Version 2.0
DGS printing
ASCII
DATASET UNSTRUCTURED_GRID
POINTS  48  floats
21.27602 23.81514 19.37600 21.22186 23.80502 19.37600 21.23198 23.75086 19.37600 
21.28614 23.76098 19.37600 21.27602 23.81514 22.31797 21.22186 23.80502 22.31797 
21.23198 23.75086 22.31797 21.28614 23.76098 22.31797 21.24684 23.82130 19.37600 
21.21570 23.77584 19.37600 21.26116 23.74470 19.37600 21.29230 23.79016 19.37600 
21.24684 23.82130 22.31797 21.21570 23.77584 22.31797 21.26116 23.74470 22.31797 
21.29230 23.79016 22.31797 21.27602 23.81514 20.84698 21.22186 23.80502 20.84698 
21.23198 23.75086 20.84698 21.28614 23.76098 20.84698 21.29230 23.79016 20.84698 
21.21570 23.77584 20.84698 21.24684 23.82130 20.84698 21.26116 23.74470 20.84698 
21.28473 23.30695 17.87600 21.23005 23.31373 17.87600 21.22327 23.25905 17.87600 
21.27795 23.25227 17.87600 21.28473 23.30695 19.31797 21.23005 23.31373 19.31797 
21.22327 23.25905 19.31797 21.27795 23.25227 19.31797 21.25879 23.32166 17.87600 
21.21534 23.28779 17.87600 21.24921 23.24434 17.87600 21.29266 23.27821 17.87600 
21.25879 23.32166 19.31797 21.21534 23.28779 19.31797 21.24921 23.24434 19.31797 
21.29266 23.27821 19.31797 21.28473 23.30695 18.59698 21.23005 23.31373 18.59698 
21.22327 23.25905 18.59698 21.27795 23.25227 18.59698 21.29266 23.27821 18.59698 
21.21534 23.28779 18.59698 21.25879 23.32166 18.59698 21.24921 23.24434 18.59698 
CELLS  2   50
24 0 1 2 3 4 5 6 7 8 9 10 11 12 13 14 15 16 17 18 19 20 21 22 23
24 24 25 26 27 28 29 30 31 32 33 34 35 36 37 38 39 40 41 42 43 44 45 46 47
CELL_TYPES  2 
33
33
CELL_DATA  2 
SCALARS node_id int 1 
LOOKUP_TABLE default
1
2
SCALARS average_vol_activity_bq_m3 double 1 
LOOKUP_TABLE default
4.31820e+01
0.00000e+00
SCALARS total_activity_bq double 1 
LOOKUP_TABLE default
6.05801e-01
0.00000e+00
SCALARS mc_error double 1 
LOOKUP_TABLE default
0.00000
0.00000
