/*--------------------------------*- C++ -*----------------------------------*\
| =========                 |                                                 |
| \\      /  F ield         | OpenFOAM: The Open Source CFD Toolbox           |
|  \\    /   O peration     | Version:  2112                                  |
|   \\  /    A nd           | Website:  www.openfoam.com                      |
|    \\/     M anipulation  |                                                 |
\*---------------------------------------------------------------------------*/
FoamFile
{
    version     2.0;
    format      ascii;
    arch        "LSB;label=32;scalar=64";
    class       volScalarField;
    location    "1000";
    object      k;
}
// * * * * * * * * * * * * * * * * * * * * * * * * * * * * * * * * * * * * * //

dimensions      [0 2 -2 0 0 0 0];

internalField   nonuniform List<scalar> 
111443
(
0.00375453145006
0.0037580452547
0.00375968599914
0.00375896550762
0.00377270604165
0.00376554269429
0.00376906684505
0.00376394796729
0.00375426156502
0.00375395160023
0.00380095389465
0.00375426863868
0.00377755104903
0.00375527838179
0.00378197074688
0.00376066557776
0.00376751961553
0.00377698819861
0.00375543164785
0.00375980242205
0.00375867597063
0.00375622464796
0.00372335174494
0.00378363402779
0.00375218426101
0.00373634968809
0.003785569618
0.00376654551543
0.00375569057922
0.00378771543863
0.00379128087953
0.00376352173803
0.00375632674511
0.00376218963437
0.00377122296832
0.00378126040197
0.00375119269385
0.00375813819696
0.00375550542834
0.00376301487056
0.00375435318503
0.00379236902796
0.00374401578699
0.00360628657068
0.00359461341343
0.00376639410867
0.00377950692439
0.00437033154865
0.00359275248676
0.00362795636539
0.00374827259319
0.0038254853289
0.00380062673628
0.00375149942884
0.00375919815742
0.00376977278604
0.00378564422858
0.00380088125437
0.00376346762157
0.0037599847183
0.00375291219286
0.00376780731352
0.00375949639187
0.00377808117359
0.00379202151553
0.00375075911319
0.00376164370003
0.00375267749218
0.00375704619831
0.00376489372586
0.00375883210992
0.00375556104616
0.00370452700735
0.00376832463392
0.00377009229384
0.0037677729216
0.00404192947089
0.00327999319369
0.00352081868409
0.00351836448648
0.00374116752114
0.00374274256275
0.00910088185163
0.00403090295862
0.00338340559162
0.00373851421613
0.00359280118512
0.00375870188113
0.00369716923089
0.00375377652117
0.0037604001521
0.00375140838885
0.00375475351367
0.00377350073319
0.0037732189679
0.00380343916078
0.00379048061286
0.00380068341833
0.00380547333618
0.0037599949009
0.00376385466717
0.00375706947524
0.00375230038692
0.00377976171692
0.00376903976392
0.00377777133668
0.0037783185266
0.00375092284797
0.00376496774241
0.00375888780478
0.00375106158689
0.00375507049618
0.00376449947922
0.00375185301981
0.00376437907396
0.00375396278495
0.00376105636091
0.00375963595023
0.00359968123002
0.00372105455101
0.00358790319081
0.00379076506106
0.00375397969503
0.00438683983419
0.0082573463489
0.00331247311876
0.0030379035796
0.00300741686153
0.00340505254898
0.00334009419372
0.00372545194919
0.00374349478655
0.00374179972164
0.0458977992067
0.00813806362428
0.00322441686796
0.00429227446791
0.00318482163774
0.00361690903449
0.00329693026198
0.00360836147414
0.00375242213011
0.00369092180368
0.00379136243598
0.00375402949138
0.00381941705698
0.00378839932054
0.00377026967689
0.00380066063269
0.0038116076238
0.0038029227408
0.00377408971021
0.0037916271773
0.00382024386502
0.00379291636041
0.00376802668913
0.00376048260419
0.00375683251265
0.00377474345421
0.00376462827043
0.00378580060474
0.00378227883491
0.00375265226305
0.00376526096129
0.00376894824201
0.00376129234068
0.0037513284399
0.00375719155873
0.00375758996835
0.0037663285674
0.00375168139057
0.00376824314579
0.0037649702094
0.00375636230697
0.00376273129827
0.00375348243675
0.0039211188365
0.00372672315586
0.00334157495647
0.00373299234757
0.0035162259101
0.00375608910833
0.00376381890556
0.00914671669337
0.0322817560637
0.00455802162731
0.00346254368521
0.00334081729902
0.0028482013798
0.00275513896001
0.00339426985116
0.00335905958077
0.00330544500816
0.00369023085289
0.00368160959849
0.00362440503266
0.0297176449734
0.00416573755263
0.00894762304926
0.00304246578892
0.00404043472349
0.00284233998645
0.00337372633967
0.00376212242382
0.00317849515297
0.00354499583947
0.00377046262626
0.00365274480799
0.0036829361925
0.00379546339295
0.00373857873742
0.00376202887233
0.00376397831454
0.00378081045717
0.00380537764339
0.00377912822669
0.00382302966982
0.00380821152165
0.00382033834074
0.00380889542745
0.00377724116394
0.00379202680655
0.00382591180571
0.00379785104415
0.00377145112582
0.00376327958458
0.00376038820487
0.0037749451099
0.0037790966431
0.00376154805533
0.00379973454481
0.00378845414531
0.00375260663945
0.00376125117972
0.00377418998239
0.00377646774376
0.00375930243414
0.00375402738915
0.00375408690215
0.00375565579498
0.00375715081413
0.00375935243145
0.00376878420322
0.00376708066124
0.00375435096168
0.00376835743179
0.00375916961264
0.00375683226357
0.00375765803104
0.00832342449324
0.00428590922271
0.00356971876248
0.00357495357542
0.00305581104387
0.00373977581449
0.0035708094433
0.00379332626159
0.00375290942154
0.0463092587853
0.00954867261145
0.0055480969283
0.00390361158191
0.00379773966093
0.00286802900276
0.0028322073243
0.00274214535077
0.00280890173225
0.00329458860554
0.0032110936592
0.00307900019625
0.00367734516786
0.00355682100772
0.00380715188548
0.00355002767224
0.00383671862202
0.00359082576517
0.00366480796678
0.00844072454055
0.0459819466577
0.00317446187892
0.00821530906196
0.00229452117727
0.0033556102371
0.00431477732384
0.00309452372789
0.00308373681289
0.00359124086172
0.00310538772227
0.00323817970989
0.00358898108689
0.00333122800709
0.00371661908698
0.00383098768675
0.0036630592929
0.00362827479707
0.00380628727435
0.00376809963594
0.00375819354684
0.00376468710337
0.00378846279925
0.0037992645048
0.00378460604652
0.00377223302528
0.00382711360485
0.00381262196968
0.00380465891114
0.00378240674443
0.00382074577514
0.00379679059112
0.00380701021142
0.00377699063133
0.00376680796189
0.00376117215582
0.00376177158636
0.00375592600582
0.00378685466024
0.00378459020822
0.00377782963016
0.00378332243488
0.00380591636274
0.00379518787514
0.00377518197374
0.00375097020254
0.00376418188783
0.00375899533865
0.00377307268736
0.00378368418784
0.00378131378701
0.00375126601924
0.00375681679306
0.00375113784868
0.00375881336492
0.00375293394066
0.00375331289447
0.00376426283588
0.00376660223471
0.00376240258361
0.00376954902136
0.00375178305245
0.00375961295624
0.00375343726117
0.00375376275733
0.0340302137468
0.00865858945516
0.00568062125227
0.0039050274647
0.00323640425023
0.0037491784123
0.0032212180341
0.00378827917791
0.00351431819469
0.00378243329546
0.00375385829423
0.0054919914752
0.00494960768453
0.00500011036221
0.00221777452296
0.00343439922196
0.00408757282932
0.00275836587822
0.00265415318521
0.00262220022793
0.00289739112968
0.00329767290347
0.00307929901183
0.0030372982066
0.00300117031254
0.0030675391783
0.00369946645347
0.00380449731217
0.00353257539436
0.0038080647489
0.00380748468905
0.00349526272634
0.0038238902084
0.00384514944113
0.00382548096822
0.00346130921098
0.00358163581545
0.00839931472052
0.0322658991025
0.00167783386147
0.00462037170648
0.00880786915451
0.00350685503631
0.00304473374805
0.00374478979048
0.00346182850017
0.00273232428612
0.00325579196053
0.00285530447137
0.00370656525135
0.0030836052454
0.00311974700357
0.00354585841425
0.00325476642068
0.00368571566426
0.00384183511453
0.00382954038342
0.00360782946157
0.0036524171122
0.00383126203181
0.00365501096203
0.00375096675452
0.00376082018538
0.00380559758009
0.00368399078132
0.00376439862923
0.00375943500114
0.00378975183561
0.00379320938571
0.00377080790113
0.00377276915639
0.00378191609339
0.00381441543789
0.00378799484672
0.00380769466253
0.00378766269302
0.00380164379645
0.00381076995613
0.0037805355181
0.00377243605299
0.00375851226791
0.00376377158399
0.0037591889929
0.00376511609371
0.0037540946945
0.00378540737154
0.00379312833381
0.00379171279596
0.00379774869634
0.00377971846293
0.00377552317655
0.00375079270314
0.00376160170174
0.00376252586076
0.0037628524543
0.00377494306547
0.00377333924435
0.00378246628806
0.00378743669358
0.00379013139105
0.00379390591521
0.00375384369329
0.00375774492025
0.00375144962655
0.00375939952208
0.00375596487462
0.00376196891882
0.0037771762923
0.00375841763378
0.0037695798184
0.00376486112459
0.00377203309349
0.00375834566366
0.0427875000978
0.0104980214458
0.00802058388067
0.0055801534438
0.00428035474015
0.00331233192168
0.00362120967807
0.00310353347231
0.00360533351976
0.00373202978918
0.00379879283019
0.00379262250047
0.00423855456074
0.00294099973554
0.00469041967687
0.00438687477216
0.00180040020364
0.00363952209534
0.00423008195745
0.0026539924248
0.00278320446645
0.00269085028961
0.00302129353827
0.00292153516736
0.00315900512966
0.00337424580579
0.00296225231218
0.00293286001717
0.00287015077539
0.00297719546955
0.00375577472161
0.00370370507718
0.0038085317496
0.00381999557105
0.00357431683072
0.00337279362168
0.00381181709826
0.00381168162465
0.00381405580267
0.00339730810176
0.00382402941156
0.00384304856535
0.00382554167233
0.00380797438961
0.00353477425861
0.00336738568191
0.00383366092911
0.00364004642636
0.00342936300078
0.0109918131256
0.0441706562364
0.00204372686551
0.0035554070184
0.00728013896113
0.00432820870898
0.00399283191585
0.00324583080971
0.00283481616031
0.00426339471957
0.00365605891187
0.00281278528221
0.00310148634998
0.00268961808214
0.00352464188804
0.00305286991775
0.0030369195414
0.00301783421193
0.00358630219799
0.00331763330278
0.00307344423241
0.00373156045892
0.00383554424169
0.00384880269836
0.00383093070063
0.00354858350376
0.00385683349107
0.0035907883088
0.00382453097828
0.00381585879661
0.00354959510385
0.00380797445729
0.00380910219164
0.00377501218084
0.00380920563545
0.0038176820977
0.00369581897338
0.00375382634331
0.0037544063974
0.00379910955596
0.00378552634434
0.00379240501308
0.00379908068453
0.00381664459949
0.00377118175504
0.00377550492002
0.00377281684905
0.00377560017405
0.00378222601554
0.00378119182542
0.00379142201214
0.00379464150037
0.0037917800301
0.00378513115303
0.00376685125593
0.00376217663163
0.00376159768744
0.00376221172326
0.00376545495737
0.00375892359604
0.00379386433775
0.00379195639139
0.00379965365524
0.00380577952935
0.00378505350068
0.00378047674941
0.0037541423987
0.00376006102862
0.00376112559173
0.00376630423655
0.00376092927527
0.00377924466513
0.00378367684402
0.00376818376763
0.00377314554049
0.00377778459931
0.00378510590107
0.00378700644426
0.00378545195446
0.00379239089274
0.00378898048805
0.00379271180964
0.00379582412998
0.00379887675441
0.00380205754109
0.00380245014956
0.0037513025172
0.00375825138516
0.0037543069118
0.00375630817944
0.00375737235214
0.00376397360813
0.00378254482564
0.0037553872962
0.00376496638878
0.00377149949402
0.00376780426239
0.0324048105132
0.00645205703042
0.00869764399004
0.00474958234531
0.00390530503582
0.00344776390389
0.00324451806898
0.00372904385183
0.00352646085145
0.00369918407997
0.00376427791469
0.00444285399437
0.00377329608218
0.00482911925964
0.00417412747552
0.00226692001134
0.00122166200847
0.00297845050751
0.00313649689675
0.00509165704695
0.00390562244928
0.00385459172106
0.00288836562119
0.00277809920596
0.00302859268626
0.00325504478323
0.00349247479236
0.00334679432129
0.00325146912785
0.00303763317447
0.00282394760421
0.00278143762044
0.00289571440788
0.00277558342137
0.00304450970523
0.00379942321142
0.00372849631409
0.00370974903672
0.00381005493754
0.0038091706603
0.00381443974721
0.00356504298453
0.00327061420949
0.00381343930758
0.00381666340358
0.00381232774874
0.00329898198153
0.00382161620797
0.00382521732455
0.00380549947881
0.00349438552655
0.00379584128123
0.00331011147374
0.00383667339198
0.00384991723894
0.00363208035785
0.0023530166876
0.00832562220843
0.0326603607243
0.00157870056668
0.00288636393375
0.00453642694426
0.00243873993893
0.00859725619232
0.00509499352427
0.00524178308266
0.00304950766862
0.00314032458493
0.00379489028828
0.00282514404632
0.00392698249727
0.00259642035061
0.00339309655834
0.0028270271096
0.00262238301433
0.00371917514055
0.00295758323938
0.00299657158765
0.00287252459885
0.00355109591811
0.00327575299349
0.00299974001895
0.00372914641576
0.00383888059071
0.00383727408597
0.00379866936882
0.00384118026495
0.00351628058289
0.00384976556895
0.00385428213737
0.0035529630278
0.00382704864032
0.00381670933216
0.00380583810068
0.0035377907444
0.00376359699495
0.00374546015422
0.00379598845874
0.00381447359168
0.00368134993147
0.00380078233865
0.00381037559372
0.00356143262569
0.00375887110224
0.00375491679488
0.00380333450172
0.00380588441937
0.0038219632242
0.00379867292357
0.0038217508208
0.00377643575431
0.00376817869381
0.00378128375257
0.00379393094611
0.00377724148556
0.0037654000592
0.00378726767681
0.00377990576163
0.00378413024895
0.00376838387153
0.00378314822672
0.0037853757936
0.00379166422583
0.00378362908053
0.00378620394045
0.00379312025859
0.00380068995006
0.00381445015273
0.0037783804529
0.00377609182397
0.00376156037549
0.00375949737757
0.00375944968149
0.00379709113928
0.00380743126005
0.0037571244351
0.00378226427359
0.00376968103297
0.00376772830113
0.00379630536802
0.00379443829636
0.00379359325769
0.00377972032028
0.00377698223995
0.00379911067304
0.00378041532689
0.00379374506294
0.00379187581831
0.00380521197078
0.00380352291748
0.00379000634192
0.0037838233097
0.00380078094713
0.00379625207824
0.00380109061168
0.00379453831622
0.00379946415033
0.00380297955333
0.0038037688992
0.00380720561224
0.00380632455449
0.00380978946273
0.00381293930213
0.00380915144619
0.00375620838281
0.00376054502798
0.00376024262454
0.00357526833509
0.00372645281508
0.00379384946888
0.00375989730707
0.00376692965043
0.00378156807777
0.0434437557442
0.00949373031549
0.00837955417216
0.00416682851305
0.00326899199419
0.00421779343531
0.00305216848156
0.00353492250432
0.00370779269608
0.00382261264198
0.00512481387096
0.00503889377619
0.00193712570237
0.00237251987614
0.00188122725428
0.00161315130629
0.00214337178481
0.00248718158846
0.00347398725541
0.00434428756498
0.00594390734292
0.00480638337252
0.00439684401225
0.00286883714904
0.00270417512372
0.00292297996258
0.00334179547526
0.00345073010791
0.00349215421182
0.0039053743541
0.00385682452913
0.00330725935151
0.00319406522173
0.00297984989116
0.00277447643
0.00274870644126
0.0028479098078
0.00278040818682
0.00295963186856
0.00380408236446
0.00369676845471
0.00380799231174
0.00371072650275
0.00381665681391
0.00380627770371
0.00381711994688
0.00381619750767
0.00341521603494
0.00356817121952
0.00380851147187
0.00334150015392
0.00324943212479
0.00382022427384
0.00381495191148
0.00381032991211
0.00380182932632
0.00320831971157
0.00381825747681
0.00382295501677
0.0038288002002
0.00340081455142
0.00357938001251
0.0037931838605
0.00379364269382
0.00323502445678
0.00384035295741
0.00384038501755
0.00385411932818
0.00385233369044
0.00165945443268
0.00294914086771
0.0114252121369
0.00371007512762
0.0426202642873
0.00232896964562
0.00256065154928
0.0037656563388
0.00335750127998
0.00735383206944
0.00631156683989
0.00588113219484
0.00466655918389
0.00327154100284
0.00276156562318
0.00370782356665
0.0042361273939
0.00299095353348
0.00336289458018
0.00287902098463
0.00311127303527
0.00265132081492
0.00244384075758
0.00360142746083
0.00281868046663
0.00296217580978
0.00271226166934
0.00355878737347
0.00330602878742
0.0030332689793
0.00277794687714
0.00373035782005
0.00383116002532
0.00382818031738
0.00341282728545
0.00385409468755
0.00385902173849
0.00384491639584
0.00351397368767
0.0038117814965
0.0038235266628
0.00378862140231
0.00340423694354
0.00377510991547
0.00381105735765
0.00373098792628
0.00381440523787
0.00381679109637
0.0036549431061
0.00380254815148
0.00380901206915
0.00379941871179
0.00351706624487
0.00375387664242
0.00380295160288
0.00381070518616
0.0038207483689
0.00380607023047
0.00381316233104
0.0038030119101
0.00378333224361
0.00380440933695
0.00379270298887
0.00377940149349
0.00378600933043
0.00378999066694
0.0037866669007
0.0037822690179
0.00376984444287
0.00378812437328
0.00379504159441
0.00379037610091
0.00379289281524
0.00379570769694
0.00379706775764
0.00380053998623
0.00378781800069
0.00380815758561
0.00379117082567
0.00379448683208
0.00379745424818
0.00381286857738
0.0038035078144
0.00381510861117
0.00380882339309
0.00381689560887
0.00376538271197
0.00376419501183
0.00380545060797
0.00381208836153
0.00375338239692
0.00376492920525
0.00379055030995
0.00377714504018
0.00376675831142
0.00380229856664
0.00379156894809
0.0037960442882
0.00379670412903
0.0037990918688
0.00378255946772
0.00379723491255
0.00378654349972
0.00379359503148
0.00381385780759
0.00381385042563
0.00380752020024
0.00378809534072
0.00380598288418
0.00381623012204
0.00381436196653
0.00379965748606
0.00379528995762
0.00381045628836
0.00380351661718
0.00380821058556
0.00380828448252
0.00381305839462
0.00381452779788
0.00381659847354
0.00381419833963
0.00382395619852
0.00381417464949
0.00381933037204
0.00381605341932
0.00381484868746
0.00381744652263
0.00381904581673
0.00381549957998
0.00375337547768
0.00375960027507
0.00376575524291
0.00375446558016
0.00324633983222
0.0034592333271
0.00376031897258
0.00375429325611
0.00378570698028
0.0340933524565
0.00550859061888
0.00463307702717
0.0084761449821
0.0031577647536
0.00379527896054
0.00369319278508
0.00376656294292
0.00376196113858
0.00378766158976
0.00303685875403
0.0024155511374
0.00201607743856
0.00375575330566
0.00401727633582
0.00346579992635
0.00290110497109
0.00233232576109
0.00168404857681
0.00167648944368
0.00346519357807
0.00422340603994
0.00475572889823
0.00500664428994
0.0075361967438
0.00547769593356
0.00708294613681
0.00562491725977
0.00275414118306
0.00268608959378
0.00294844727704
0.00447610706414
0.00421210945896
0.00439287118196
0.00496538058268
0.00416877493703
0.00335106323918
0.00323731119642
0.00285370090057
0.00305179008274
0.00272161841305
0.00268822231094
0.00278425536157
0.00299412637786
0.00300877602054
0.00274382948132
0.00366536094585
0.0038172585392
0.00382793933061
0.00382057129925
0.00381997153052
0.00381449790269
0.0038162077073
0.00341271277652
0.00356590434031
0.00381394316962
0.00380254527738
0.00324517646308
0.00378973000724
0.00318654164857
0.00381733550604
0.00380714282519
0.00378948196915
0.00312990765142
0.00383613724125
0.00383320473922
0.00382677753021
0.00381158076475
0.00335465214103
0.00353007897485
0.00381181025804
0.00378338755064
0.00315610330112
0.00384471317438
0.00384395262506
0.0023028832343
0.00210706634765
0.0100662458373
0.00589469174251
0.0297579491504
0.00297347547812
0.00205310128683
0.00318260101105
0.00417762526744
0.00244012562413
0.00259001481654
0.00870503951015
0.00802934737072
0.00731652737006
0.0058303769813
0.00301717275975
0.0028273360694
0.00354743841542
0.00387118119434
0.00292561513372
0.0039624069997
0.00264530899757
0.00326710085838
0.00274517560226
0.00249853791781
0.0025201627391
0.00373158655008
0.00275102226342
0.00286790198307
0.00263236823819
0.00350094833769
0.00323327706574
0.00298386672773
0.00269009588913
0.00370686118906
0.00383001037823
0.00381792506592
0.00338523200466
0.00383607185937
0.00341888494752
0.00381671096788
0.00379378096021
0.00378400960574
0.00337846081188
0.00379522938916
0.00377544277475
0.00371967112927
0.00361646668906
0.00382020868986
0.00382363929696
0.00349471343047
0.00380923266925
0.00381063781641
0.0033491613368
0.00376013786632
0.00376628455337
0.00381957745973
0.00381996079863
0.00381118876592
0.00380116458647
0.0038247718781
0.00379972001051
0.00381288111988
0.00380375600602
0.00377512830878
0.00379227726611
0.00378591625885
0.00379708892207
0.00378960667014
0.00378951837923
0.00377730796284
0.00378696578491
0.00378333662144
0.00376640039628
0.00381511792179
0.00381130311435
0.00379204764375
0.00380149114281
0.00379862444781
0.00380018422474
0.00381687127664
0.00380207779929
0.0038041025139
0.00380646885249
0.00380850480101
0.00380738033615
0.00381093016498
0.00382275040359
0.00381527694875
0.00379888161511
0.00380961811079
0.00381055261574
0.00380524359059
0.00380630200365
0.00381008498484
0.00381823820277
0.00381960418388
0.00380987826166
0.00382039038411
0.00381543769995
0.00376844356722
0.0037661302084
0.00381469386449
0.00377991298234
0.00379062985967
0.00378627068798
0.00378493611187
0.00377511688732
0.00377995824575
0.00380857772631
0.00372905895736
0.00379313232031
0.0038012893692
0.00380358296322
0.00379811458257
0.00379326097523
0.00368276328757
0.00381555942322
0.00381467039527
0.00381281580843
0.00380320055789
0.00379643229003
0.00381569700355
0.00381727195207
0.00381019199335
0.00380124413695
0.00380876280937
0.00379920119235
0.00381189398067
0.00381283551906
0.00380749504774
0.00380370679257
0.00380454659517
0.00381326414089
0.00380709372758
0.00381414002433
0.00381598966152
0.00382725854394
0.00382281580684
0.00382451974967
0.00382046069542
0.00381761970597
0.00381581699764
0.00382570938461
0.00382265464984
0.00381276711662
0.00382211977599
0.00382354098742
0.00382173187938
0.00375475961423
0.00375867850643
0.00375949809024
0.00378006497442
0.00375597953418
0.0037589618534
0.00314383917893
0.00300459240036
0.0034406551306
0.00985275655379
0.0422762914342
0.00379414453941
0.00744495571476
0.00422045052358
0.00355570608797
0.00374437448595
0.0035444994912
0.00378796119746
0.00375564228838
0.00443824869918
0.00362898389317
0.0029062723652
0.00189242132459
0.00178392777697
0.00308494621811
0.00343264963831
0.00235751983519
0.00136614648622
0.00216074448076
0.0024472336772
0.00181648750266
0.00289839054566
0.00369582885524
0.00419239143143
0.00497396231283
0.00745230651816
0.00899060210745
0.00721235809319
0.00923613701454
0.00669404117318
0.00293655249162
0.00277024627453
0.00330629004799
0.00307733912224
0.00364249412618
0.00481779565149
0.00535119799889
0.00546405189599
0.00526081484182
0.0060592951345
0.0033193160481
0.00284710161391
0.00303780548441
0.00269069462124
0.00269551714903
0.00289973443283
0.00307525617588
0.0029764661105
0.00302511799945
0.00369172825918
0.00382292968897
0.00381412116302
0.00382724032416
0.00381557790928
0.00343216959398
0.00326900086463
0.00358302776497
0.00381545555661
0.00379850398138
0.0032201054351
0.00319605007532
0.00377373927759
0.00312472773921
0.00380787646636
0.00380939207754
0.00377458993617
0.00305959085962
0.00383465739937
0.00383242818366
0.00380494562075
0.00379743229524
0.00347755119592
0.00328245437133
0.00382867056853
0.00377935328356
0.0037542484111
0.00308758823301
0.00384205225813
0.00257404731432
0.00173514759936
0.00356725176465
0.00812944124077
0.00396884115424
0.00284618190781
0.0442897098137
0.00274303935021
0.00379671635974
0.00249500397293
0.00346725228875
0.0027657994972
0.00307105870381
0.00801910349697
0.00748847218724
0.00859267909743
0.00585959496252
0.00327907539699
0.00259605672888
0.00287192689447
0.00428313604576
0.00422419285369
0.00362097676923
0.00383456668723
0.00329759611846
0.00303388148746
0.00258387568993
0.002389841709
0.00241725269248
0.00359150681042
0.00264582006934
0.00295420425451
0.0025288363094
0.0035475959234
0.00323114971226
0.00302765993019
0.00275088358824
0.00253786161546
0.00372413789843
0.00381847435261
0.0038173543726
0.00378517222813
0.00328895947791
0.00383154675935
0.00382012459583
0.00338179711577
0.0038111326067
0.00380056590951
0.0037953368965
0.00322236411858
0.00376285754778
0.00382482597322
0.0036891588215
0.00382343791112
0.00357708670546
0.00381382904359
0.00347030828049
0.00381193446192
0.00379773855593
0.00331975798051
0.00379310980545
0.00382428343717
0.0038305150456
0.00381408672843
0.00381237518529
0.00377910562781
0.0037974053947
0.0037901093942
0.00380009142529
0.00379208503184
0.00379639840353
0.00377829015446
0.00377743819663
0.00378605463237
0.00379181100934
0.00378668084452
0.00377890463455
0.00377448118074
0.00383516446036
0.00381827893753
0.00380296546292
0.0038015768599
0.00380179004977
0.00380023062956
0.00380319921222
0.00381922300642
0.00380614278212
0.00380286510976
0.00380040326075
0.00380456462864
0.00380996773454
0.00381170974715
0.00380523760317
0.00381238409594
0.00381358720133
0.00381269263718
0.00381772515117
0.00381565287101
0.00381726096145
0.0038097034308
0.00380947684983
0.00380397653926
0.00381336287271
0.00380404019577
0.00381817066475
0.0038179071805
0.00381449685595
0.00381007085317
0.00380102642757
0.00382100824578
0.00381244827922
0.00381082442186
0.00382135737388
0.00381953970226
0.00375897215312
0.00376960767847
0.0037946462972
0.0037081909655
0.00378529215605
0.00378161248618
0.0037883953175
0.00379195833372
0.00335822632718
0.00379458374201
0.00379765419767
0.00380472572414
0.00366513882161
0.00327653127722
0.00380905171928
0.00379505290643
0.00380945375646
0.0037974225084
0.00381118636403
0.00381303714411
0.00380005147971
0.00380310259596
0.00379329593859
0.00380257154034
0.00380371187778
0.00381676827841
0.00380614962517
0.00380833462139
0.00379236120597
0.00380538450217
0.00378960633315
0.00381475499409
0.00380311410424
0.00380820915533
0.00380869284999
0.00378820369953
0.00381540034544
0.00381191234677
0.00381883214964
0.00382035514353
0.00381877769873
0.00382687584292
0.00382726786842
0.00380957807282
0.0038215159234
0.00381839283176
0.00379605668678
0.00382462632391
0.00382767890548
0.00380577579614
0.00381990953007
0.00382630363268
0.00382734481243
0.00376356474191
0.00375400161529
0.00376735399228
0.00376476681657
0.00375423778864
0.00407008792464
0.00353164661657
0.00292660668696
0.00748914515624
0.0305933989824
0.00849737357406
0.00378577929076
0.00374297171791
0.00315183912823
0.00373979275915
0.00350628048579
0.00326968678951
0.00425613157841
0.0023467269181
0.00194599924274
0.0025147561904
0.0024294933801
0.00137598138654
0.00294362904273
0.00357559834283
0.0030930374984
0.00318024126161
0.00145040009924
0.00207149180226
0.00242061349582
0.00273433334381
0.00265490338513
0.00392891971685
0.00491187181125
0.0052648171143
0.00427718539588
0.00686025509701
0.00876021875423
0.0109910563559
0.00846525820211
0.00802717422077
0.010913057735
0.00303187013554
0.00338776436901
0.00324950636804
0.00440557067618
0.00598711313422
0.00686394870872
0.00673233224256
0.0052296636435
0.00761518387214
0.00325455562167
0.00295513856397
0.00279218029542
0.00314923697823
0.00264968811554
0.00261227349167
0.00266914245246
0.00305376177665
0.00317950760938
0.00309820792567
0.00314568476643
0.00378705310302
0.00343590788263
0.00326751209554
0.00354227340468
0.00378291433834
0.00381863486004
0.00378070906
0.00310524660278
0.00311442088538
0.00376811285169
0.00376307123858
0.00305942828614
0.00379948662351
0.00377233554244
0.00375751201269
0.00300716514779
0.00382877909923
0.00382430683535
0.00382370537718
0.0037839524029
0.00381336397126
0.00342667043971
0.00326187190763
0.00382359044956
0.00374510349974
0.00308196768295
0.00201168623765
0.00332646387873
0.00225303542184
0.00960544462837
0.00730868091118
0.00511716933865
0.0310796984993
0.00346503717305
0.00305250300127
0.00312641686111
0.00447829418655
0.00213456515281
0.00203704721838
0.0021979087065
0.008505591835
0.00879349053772
0.00921050273418
0.00703097790201
0.00292564663909
0.00265960404739
0.00327693126808
0.00446018043259
0.00375369854897
0.00353233212863
0.00487421771617
0.00297938070638
0.00328159817336
0.0026735820362
0.00243853855909
0.00245947054343
0.00276863574342
0.00372508982907
0.00267850175379
0.00284148245061
0.0025189128535
0.00355491671896
0.00314565070319
0.00293528863384
0.00273231518879
0.00252470372541
0.00369978694458
0.00380159578494
0.00376937991313
0.00328065630079
0.0038080754419
0.00330838266234
0.00379849722919
0.00378298037377
0.00320429509361
0.00373315109083
0.00377030991248
0.00383219581234
0.00360164544216
0.00365840129705
0.0034749223857
0.0038158345884
0.00331100364972
0.00381650836032
0.00379740493858
0.00315354774227
0.0037586586816
0.00383379840675
0.00380721457736
0.00380812938133
0.0037916063446
0.0037972845142
0.00379546173385
0.00380051945062
0.00376021563115
0.00376935271598
0.0037385179901
0.00369470671456
0.00373543867545
0.00377228951222
0.00374473842763
0.00383051549014
0.00383625221267
0.00378218818894
0.00378800539093
0.00380413075162
0.00380369208028
0.00378944542315
0.00379187862657
0.00381863929025
0.00380442028899
0.00382986887597
0.00379142063192
0.00380275855663
0.00380351285059
0.00380949942484
0.00380676857871
0.0038055009424
0.00381099359801
0.00380613689675
0.00381404421229
0.00380845728616
0.00380882994925
0.00381312868773
0.003816718648
0.00380921450816
0.00381967622127
0.003802879589
0.00382091523178
0.00381413465998
0.00381415206357
0.00381271642363
0.00379251326685
0.00379315793049
0.00380307484455
0.00380454043845
0.0038116865755
0.00380819801454
0.00378722509779
0.00382023897248
0.00380071591212
0.00380692249704
0.00381902167034
0.00382206693129
0.00379810675086
0.00374363644476
0.00335249202558
0.00375959239043
0.00378842739468
0.00369997963849
0.00379323815692
0.00292747205155
0.0037928251377
0.00368748232984
0.00364704710631
0.00316367234236
0.00357116072318
0.0027198485271
0.00380228618177
0.00380743978456
0.00380490866447
0.00379530443297
0.00344788318786
0.00379642993328
0.00379914564004
0.00377186091567
0.00381016235409
0.00378307789492
0.00382116084423
0.00379250276565
0.00379466361737
0.00379037728463
0.00379607490702
0.00377213923172
0.00381807847835
0.00380071836413
0.00379007001793
0.00380927794901
0.00378658834006
0.00378882921086
0.00381402017759
0.00377836041584
0.0038112219324
0.00381187849675
0.0037856420612
0.00381405630707
0.00381137930891
0.0038214969676
0.00381381907306
0.00379344525359
0.00381578163454
0.0038167916878
0.0038294713014
0.00379727585867
0.00382867333158
0.00379914225007
0.00381579044738
0.00381608363474
0.00377062238483
0.00382620725643
0.00382935567204