/*--------------------------------*- C++ -*----------------------------------*\
| =========                 |                                                 |
| \\      /  F ield         | OpenFOAM: The Open Source CFD Toolbox           |
|  \\    /   O peration     | Version:  2112                                  |
|   \\  /    A nd           | Website:  www.openfoam.com                      |
|    \\/     M anipulation  |                                                 |
\*---------------------------------------------------------------------------*/
FoamFile
{
    version     2.0;
    format      ascii;
    arch        "LSB;label=32;scalar=64";
    class       volScalarField;
    location    "1000";
    object      omega;
}
// * * * * * * * * * * * * * * * * * * * * * * * * * * * * * * * * * * * * * //

dimensions      [0 0 -1 0 0 0 0];

internalField   nonuniform List<scalar> 
111443
(
4.40627922372
8.00396853895
4.37816696907
5.61657535277
42.0590515021
9.41313840688
7.24845798435
5.37132252697
3.4283155218
5.41739038747
43.8816991688
267.829334802
50.9901696939
5.4851703214
14.6144562838
4.09723313886
4.96276307952
13.5132108073
3.42066593725
3.65888918828
5.3021817113
32.5846300723
268.586841878
136.780751742
1476.33748828
309.203946046
137.539350901
28.1853939478
4.21794311451
12.7412950718
15.6372323202
3.93022877148
3.44745407111
5.00646712917
7.48395214306
10.7837411033
3.3808601161
3.44423231803
3.6430400529
3.63012662472
4.43232860139
50.4886333925
207.388112284
1601.49883725
747.106384236
155.282718374
151.98767765
7220.78164028
1873.37153061
751.802755513
193.429957319
149.609064731
35.824618486
3.39944395247
4.47634241293
6.26789671111
9.88514200339
32.1975483293
4.37024716667
3.51022434641
3.40372022557
13.0401382846
4.47379530165
8.08186505769
15.9704144957
3.37720642702
3.4796383106
3.38546607483
3.53909811849
3.67778536603
3.51762201225
6.09540501566
293.07335291
49.5686987346
140.597102649
1248.80638657
8610.9274532
3351.47673794
771.95987053
783.957838865
199.887979647
272.374477844
31984.0779581
9178.83045979
3399.84866235
1170.06252378
744.630374607
232.378737168
392.990703447
173.567278376
30.6871712697
3.39240676287
3.95449910828
12.6019232589
6.40106734215
38.1380649564
9.58976561759
23.1113240404
27.4971748243
3.89083867194
3.5626844983
3.44381358605
3.39130512401
12.9287272048
5.50135892302
22.9889096265
6.87013376498
3.37831083602
3.58401814652
3.43417430134
3.37830404285
3.3979729757
4.15765247363
3.3873934655
3.62777608193
3.39890167972
3.54528172742
5.9995873334
1545.22187356
295.993491514
758.939141336
48.4973018664
156.451062613
6651.68165982
35526.5084082
12166.2863148
3333.05097122
3402.14875366
917.872633512
1225.86924249
210.365662125
223.727477497
297.111175647
183677.529305
36524.3432401
11828.8668656
6463.39706448
3091.98347416
1523.37848949
1590.9593414
873.564983799
202.099662934
395.166858813
174.962185555
4.92813999638
53.8574130981
14.3758593561
4.90720887549
17.8951037764
41.3024399304
19.2794258258
4.99354950551
14.1639505348
27.1993183862
12.5856741417
5.93185948925
3.44529344672
3.41593380883
8.89312550629
5.6623868809
18.406807598
7.43171801831
3.38491266993
3.53267013765
3.84924760369
3.44503325368
3.378925007
3.40913562819
3.63416238893
4.11311701968
3.39327291487
3.93253765743
3.59587632079
3.4094520137
3.52884750578
4.6731475265
8405.98182384
1572.61465904
3400.29374467
285.088949685
760.639995916
29.7201748923
149.147824992
31028.6066564
179622.920255
38447.8257921
12287.586199
12168.8690956
3692.19302023
4432.30922924
972.741289405
988.02346393
1223.63846848
238.443072649
263.077018266
545.017906166
180274.355552
37088.0907867
30573.1703803
10413.1629254
8426.16710926
5215.66295769
3730.02458623
1218.03344798
1506.84576948
817.378121198
289.32740955
475.96574884
310.2982162
185.952756834
303.351697174
7.32001285134
65.4183578476
14.6818554816
24.1772133777
5.14017249515
21.7647603871
17.8911364049
40.6789991071
19.4882939339
4.99727964956
13.7866252656
27.1944961136
12.6462320704
5.62148821537
3.47502462907
3.53776821956
14.8037288321
8.29276345727
4.94754949776
23.9072323247
7.81153047848
3.38852055294
3.44428816449
3.6215327274
4.18682635768
3.42263513866
3.39203622598
3.39258093263
3.40543199449
3.82192082353
3.6200545838
4.43632510412
3.88189421725
3.43459043503
3.77272299975
3.42781620921
3.43370434653
5.06215404631
35307.703224
7450.81999889
12870.1284174
1583.55508532
3195.2749309
190.223007631
786.504220786
36.054525374
163.121586595
181653.467943
177027.278686
39791.6540663
36834.9382303
13338.7725324
13383.7655542
3776.75210446
3718.64217613
4150.44105596
998.193512089
1064.69747837
1977.10444404
282.253357014
412.832901984
20.2269825543
465.675915974
61.5716462398
480.445037793
486.365870657
177543.711127
180730.748191
31857.4038905
35076.9800595
13898.5186103
12734.4186993
6560.04021205
5168.03988955
3193.71237518
1494.19666974
1780.40511471
1250.3548311
900.513515024
1303.55882569
363.547936328
51.0547072803
467.587011824
348.342261485
167.156237221
295.344374263
8.93753547403
63.9943843149
12.8743078834
17.9420652734
5.4645585674
3.58060438722
22.1070157494
17.827245093
17.8335864028
5.34520493208
19.8139590553
11.55418608
12.892154042
8.02704420003
6.7563648364
3.44264156008
3.52157499662
3.44646363895
18.4437414086
13.3246264423
17.3245841892
26.6593371661
23.9410442598
8.29127573567
3.94952264625
3.38236621361
3.4948052175
3.4243088987
3.57047760969
3.7290792466
4.50163202633
3.38048031629
3.40819871162
3.37997086911
3.42956179764
3.39256347046
3.77254936216
5.85972387244
5.23054765026
3.60533127746
4.07135649849
3.42600637808
3.45728520866
3.41089082913
4.78081753487
179026.883135
32327.5620733
42094.9740175
8402.78686266
11501.489572
1171.95992198
3427.79642864
223.498883183
788.018065953
153.79371725
33.4483260736
174238.722218
176993.429212
39743.7433237
36317.9768669
13073.043864
13529.110874
11702.9386495
3603.37467839
3811.07680605
6178.0213588
1207.84476952
1583.34814135
1741.73350836
1668.97083584
1701.14453583
294.729848596
46.03333415
403.232004371
16.558653209
37.3714310948
478.001554497
32.6833079844
52.3133846481
36.5018181371
624.548197905
659.05812229
179387.852315
180166.173553
36935.5227131
38977.8321442
30907.3655432
15698.7230987
10715.4315043
7644.67889971
6167.29699268
4349.81412317
3639.25544812
4656.93509114
1806.14685627
1675.95464177
1369.68566922
780.455729657
1214.54494346
345.740981053
52.7589367097
28.3458891525
347.771811575
488.141164895
27.0738769237
390.246270907
154.442010104
320.587328082
40.0670941972
418.860150373
8.66539498467
32.632768706
12.9964941101
5.79285414229
3.9210534516
3.60518404994
3.71949983468
17.9969603431
9.42726798082
18.1754413995
5.62910619199
11.6372781118
13.1466444018
8.01479338014
15.1027306637
3.92792398084
3.52266133993
3.47224432387
3.65659188344
3.47046123172
11.1075581556
18.8961842318
24.5972505932
24.5060832174
4.1626057265
4.17980580849
3.38409554077
3.45295353001
3.49992705923
3.523201503
3.94427051409
3.93603958045
3.66834915893
4.4551462079
4.88396695241
3.92951879932
3.39858910505
3.42463576031
3.39481962661
3.49904670134
3.46648221524
7.01439429187
16.4947853607
4.608016318
5.06207828774
3.64321850729
4.14652929103
3.48725358961
183174.513437
176440.140414
34893.4801228
39338.3947887
6471.46785392
12464.0753223
1426.64350476
3340.01171987
820.436007564
206.975213667
157.918318013
57.5333569173
175060.135256
176875.817751
39853.9140389
38200.1271696
31005.6954909
12986.5822851
13486.715944
15886.1110269
4342.03717564
5197.21551732
5860.92360608
5145.2756667
5378.55324817
1226.03495956
1462.34169055
1681.08224178
2092.24612664
2223.90210485
305.922965122
310.24280811
45.2850703864
48.9776236994
465.346875885
613.89003658
17.2563721221
27.7390378631
42.5357726468
517.267765139
32.3063089893
51.7257158903
35.2017993296
62.1046428023
630.260759299
661.647230112
77.3900692606
547.462798526
179044.150353
177804.599563
180675.671894
36893.2950697
33342.1135358
32667.6501259
17648.002748
15635.0358094
12580.8805834
14188.5764843
7985.12177655
5781.61086631
4861.13325781
3042.21033355
4066.55438859
1724.53873407
1313.709189
1734.76454694
1468.24559077
799.982751823
1363.89487952
1626.59870818
209.460679566
30.386688987
51.4620174254
28.4961394751
380.20021747
54.1070652221
400.836125814
20.0701745684
50.7104470143
475.591089813
156.256090313
40.8070349385
299.472232477
33.5597836854
52.6905543232
418.320223959
3.83129018561
4.92862952561
39.9349224063
9.32542618402
5.66257100882
6.36318836012
17.4270850208
4.01731760361
4.55286311641
4.00097486625
4.26077713809
3.72142489821
4.86283168083
3.90930765014
11.0144863353
13.0940598889
14.2872176437
5.03120694468
3.542158595
3.59469517951
3.67469678852
3.80875586319
3.69502233058
18.1850375004
16.2209813068
18.1696742046
25.6813375033
5.34114648562
4.75140718512
3.5476339117
3.44266676008
3.53531784697
3.70803821797
3.48688405231
4.15076463128
6.39374889092
3.82071017688
3.99835354957
4.15399107938
10.3391545752
4.43776123642
4.37735811853
3.80552835522
5.32655544864
4.95293183578
5.88168698972
5.6891748639
6.91243267286
4.18106146202
3.38906086767
3.46535871094
3.41329273875
3.61067588908
7.81035913906
162.922434456
11.4558836406
4.87422942957
4.82757656433
5.26702035591
4.77443936028
178687.041802
173677.850808
30788.2487132
39598.2992731
8174.87650361
12064.1165832
3556.422728
1245.75342146
778.44448913
315.27907395
61.27413505
174201.997033
176259.206412
178550.792275
37366.5609307
30564.7217309
38755.8495734
13423.8113506
14681.8061072
17791.8830721
14315.7152784
14855.4928969
4208.2275589
4782.80272991
5323.77246442
6354.70616808
6808.11481904
1330.99434882
1235.64415496
1740.19622682
2108.75062015
1752.54977818
2044.96572095
2135.01882014
1832.19139818
31.443971228
290.5027957
350.57097956
26.3911954358
81.2217386306
46.5753758829
443.09912555
702.767008565
27.8014175687
35.2049749455
41.5108158936
587.521901042
34.3758925402
75.9032554277
61.2177254866
614.474396499
72.2264202971
661.068737923
61.6026454293
61.0525939776
535.895064956
176108.127194
178092.48802
181153.598312
37329.5462589
38228.3131398
39393.0898915
39381.5086278
33215.5323225
16283.5913415
17430.4022514
10437.360702
13353.4777063
8750.46918348
4634.36522233
6054.1930292
4791.30624802
3461.68429457
4761.81381285
5384.07208571
1248.37846758
1418.73128989
1423.30128596
1754.92576462
753.222504672
1197.11657243
1512.6920618
246.784432005
30.5899865187
28.4846937962
6.30327372487
35.4494727996
434.579621515
44.1753656002
43.9798425735
426.627382415
21.0829530172
50.2462601092
72.549385403
514.471130413
167.798546097
326.124984894
19.4743166066
28.2479921963
466.512620943
18.9894903189
45.5212852143
571.722656249
5.37719534163
32.4119684263
6.91074466723
6.80728537167
18.4335922829
11.7070724062
18.8802094448
4.54449496165
3.98425374506
5.08152219698
11.1839939484
4.28364679785
3.72564491944
9.22899650961
4.53115369429
9.62316406778
3.98609446466
4.59936721895
4.73225607351
3.86827071902
5.13572705838
5.63805485257
6.43616836689
4.18727229027
32.4218085081
9.51627943992
10.7144536508
4.90094595127
3.53724830359
3.65390556777
18.1696963222
20.9012429866
3.92054495542
10.3840731451
3.96478931299
3.9041695391
12.1339311546
13.3558118191
11.6217850689
6.06007061588
4.23926686483
11.7056133308
4.41610359238
11.2102721781
4.71179968734
14.1572656122
11.7887592459
4.62225822076
4.4546360428
5.31041492116
5.12591891171
4.06397707247
5.8761621838
6.45362148634
6.42825452964
6.48166809643
6.96492012959
8.17638263468
7.26197530017
8.94272645735
4.57745012413
3.61892636139
3.75173184867
4.81074315976
833.342306846
181.439552959
13.8522825052
5.43213316936
5.77259448675
11.6357986049
180003.776013
176007.248
35243.1483691
36995.6560062
12656.5569355
6647.80927395
3187.79776613
1584.63248138
344.750068404
53.0844541563
176707.698102
178991.364615
178085.945833
36700.0694459
35596.7596611
37465.9003101
32723.1626498
34169.3107349
13203.0657206
15156.2880046
16122.0065608
17132.6267501
17626.2717606
4816.2304476
4120.37771143
5680.75058824
6607.10035724
5611.20038931
6069.95875066
6475.65725665
5835.77193117
1203.65310227
1382.59406129
1600.07045345
2317.36640839
1963.49644002
1967.78485866
2099.39732249
1810.61874057
30.641569808
222.377485956
37.8156403272
299.827056113
21.1642441541
79.9795715432
31.5518334898
43.1097886681
644.306747599
496.476234326
97.1250646137
607.965749846
673.298684051
35.5700134916
37.5937820749
41.2750066521
54.7396579047
655.022439379
34.8192756324
74.6129902534
75.608624821
726.154330481
620.502830253
71.1935253328
78.4986351665
666.800820515
29.0384784946
44.5762737641
51.6809070641
54.9789979213
175209.387216
175318.147359
178773.418931
178048.442106
186408.734071
34945.151411
38184.6963133
33135.7513015
36983.4985697
34748.1354285
17025.998466
17015.0616809
16249.2766871
12374.5167816
14443.9940758
17352.4011545
6670.67765196
5004.46203034
4904.43572784
5758.63638907
3021.20427803
3917.26637964
4653.64064609
1575.90661866
1554.72774831
1567.32394701
1744.04274462
866.36826386
1372.65665863
1720.46131841
1983.64918766
203.811209001
21.6051269483
40.2298807172
519.168474796
44.2100353511
43.7375920529
49.7549084273
428.795838455
46.613386275
38.2206792051
87.9213618421
630.630481783
16.9366842884
170.797540098
314.114229641
28.0244211746
49.4680954794
431.165018998
19.761655021
34.4602281545
82.5218691305
561.768009337
4.91248314225
53.5994687006
7.69438561978
18.6904397603
26.9688724717
32.1945176867
19.2256240241
8.99140780371
19.3850740661
9.19098595537
8.35625324863
9.37276484296
9.30248272139
9.57756494524
9.79332301724
4.51788377595
5.14522942018
9.25065346944
5.08841222718
9.4975348216
5.71705174474
5.39836228847
4.08343208575
6.45552183074
27.1590276138
7.31588162655
7.26338800451
7.49131206482
28.7237657154
8.58925896752
8.19201852703
4.61170047263
28.6703646943
4.35840989476
4.60271584511
29.8670016381
20.8513827433
3.87672698005
6.04625379156
20.988176708
6.24759779072
4.26359296811
14.154507591
13.5623709822
17.275838764
18.0258752911
16.1321026261
6.85235564829
29.7629587956
7.13585244016
30.3442276014
14.7847310402
18.354481649
12.6084872666
4.80257434813
6.28966841512
23.8747830645
21.7596168946
6.23186018187
5.42627121004
7.42040141
7.19182700535
4.5357863435
7.36360740166
8.0872933486
7.80506381945
9.46305988928
8.13373736618
35.3786326447
8.04747773938
9.45155611067
10.2032293925
37.2764327166
9.153839964
10.9066501764
5.11770154472
3.59546840088
4.59164799215
5.67844074008
4.48956758093
3520.99495718
836.007956377
240.900110316
4.95653188969
22.1011417403
179455.574318
174905.961839
39360.5933006
30968.8975013
11291.3425697
8416.45591048
1746.02023242
288.25228131
30.77203623
213.87001638
174741.474815
177499.134794
178272.44272
175380.648035
175008.477314
37023.8584159
35971.7247812
33138.9221064
36694.9896737
37971.7384347
15919.6697445
14576.5830418
17279.5770577
17420.2687862
16497.5153422
16080.6745469
17371.7179763
15386.1715979
4219.96740552
4696.18378078
5135.33366675
7294.07915667
6202.61153395
6075.75838242
6474.88066907
5892.79068637
1013.81977178
1182.45646562
2214.49145296
1872.71968977
1983.901271
2144.19011242
2150.71417326
2302.72535011
2100.17762
2089.83112729
274.91234072
28.7448985978
32.4658377119
31.3910962153
43.6289003689
53.5797602853
73.5089446359
581.44943448
425.176672804
67.6915194793
94.950894462
671.5266945
94.8319059903
706.421720405
39.4310478043
46.7682750116
58.7499493072
716.274182598
44.3362334023
65.5169342527
75.005237025
96.1738923118
707.719050132
564.180396906
37.901601984
80.6801263379
758.315671941
28.802647524
49.4183794185
173366.431451
174466.631963
177977.878592
175614.984605
180674.608796
36481.1568073
36241.7885669
37130.8945737
38739.7409675
39920.1761751
41715.949026
30842.6883571
17830.742942
15698.4220473
17899.0734497
10383.125084
12192.0401461
15146.1128646
8475.75459208
5128.57085638
5548.52122613
5398.9973962
3699.39486673
4733.39319647
5432.48193308
6066.32657258
1231.08357633
1847.18801216
1509.56309572
2099.77855382
796.688280736
1222.61486276
1510.94556765
1808.19662839
297.648690875
40.4676872778
54.0529202279
535.060784103
53.5330750437
550.874347365
40.821734428
76.965039041
105.405766831
629.290120868
20.4313420601
181.64341647
349.082402631
457.351600803
28.48158322
50.8240334188
621.250025466
41.6640799682
67.7808841012
729.072520579
6.05144345462
55.9655140734
22.9760328583
22.7421227784
29.8706356844
19.0325004347
35.1611073923
18.335483829
28.6241733115
11.1385582668
8.89874412657
9.89816510968
10.3572990922
10.0944189682
9.58154500754
11.1897297423
8.9959352038
10.8956953389
11.142602935
4.7003000067
19.1863600575
18.5333028133
5.36191776269
11.7036408343
11.683469076
6.38579262385
19.4464815685
6.15274866366
12.2114599182
7.45032854221
6.82524826231
4.47429608804
28.2092991912
50.4892912305
28.2209797387
8.56991478431
37.0555247921
36.7730271101
9.49050133854
9.96293189075
36.0063113876
9.28549546905
23.4708936897
11.1930498247
10.4018382011
5.29748036689
5.56635870972
5.01502165801
29.0223951971
20.0048174198
28.4146685636
24.6156672821
16.8874730406
6.45086608903
6.52289592216
18.3545191912
275.151501107
18.8716238264
27.9214082631
31.6976213733
14.639554077
11.050648519
285.698158982
23.8258005141
34.7710164008
21.7328537644
31.3327412097
11.5789450634
41.4931023247
41.2490567944
32.4951062756
7.61263742724
32.6711586722
6.57550164543
9.50837949689
40.9095118509
32.4593975648
7.62649151973
8.78915214705
11.0000132969
9.85970032799
5.1107193147
10.1990180864
36.1496242522
10.9926417385
12.5851322229
10.4207035813
11.8554877373
39.0525924733
12.4358741501
12.0678443331
37.5718031409
11.8506857342
12.8479942733
5.8031659092
4.96021919663
5.48801235502
5.50831302355
21.1548054211
6.66456333292
5.24854748788
12454.0923053
3412.23524517
1086.80315321
176433.190351
179797.815069
34899.9323787
34365.876242
7844.08049602
1554.81856177
199.334784414
1031.27071877
39.0714283616
195.226021517
174138.498459
178079.310713
175949.45792
175933.041328
174828.423266
42912.4358986
37111.5211554
39163.3603539
33151.0846823
33108.1004813
34383.0827989
34379.7835142
33893.4346866
14140.4507619
15613.0380625
15586.0413808
18240.9437275
17063.3154611
15887.2774818
16774.2144477
15670.0646485
4149.08391366
4132.11873897
6796.93844864
6155.44842728
5981.49861961
6640.19992579
6763.98019224
6967.00405165
6833.74881975
6582.07516279
1205.6378936
1914.39872703
1545.49806495
2165.40639721
2221.89821235
2319.26946727
2265.50923511
1896.90494568
2378.87250952
274.5162875
49.5219785308
72.6931367337
42.0593603001
75.6041097888
636.366152226
772.652539972
438.039364513
67.7630561075
81.6673828303
707.35057681
649.621325253
103.383295479
690.594319818
47.3292222089
40.5821899569
68.8043869793
754.926726572
55.9524332626
55.3901969961
94.8392628478
95.5919408858
638.167840199
700.742186732
62.8545709851
80.0081520363
98.8207154969
771.414173566
48.5006819379
173457.985602
172883.289951
174265.142539
178133.289795
177479.168968
175665.91378
180307.157311
37012.253241
34440.6533971
38120.3189059
32392.5684622
33824.2761566
36647.4005293
35231.659257
16786.2877458
16924.969883
16842.1139984
12817.1400813
14205.5595298
16080.8428721
18335.0017446
6606.18383304
6096.78490465
5116.99817104
6564.89353745
3110.94909949
3940.35489489
4566.45563729
5299.26670641
1519.85093996
1789.78779113
1963.34664494
1929.24967772
885.516101695
1398.41794908
1673.63244752
2054.20572923
2267.3779475
322.621340167
39.8798162072
46.0117906513
82.5104721235
626.016148857
53.2948019118
70.2296954446
529.154708711
37.8102025358
56.8997994763
82.885656237
794.471098208
164.613465692
40.3359641644
338.899278222
47.8733267367
420.635298454
80.3413993875
524.977176371
67.1129029541
97.0868578077
644.822709503
56.1531119267
36.5067847473
39.958726299
42.5085073401
20.3038259148
10.0590488604
16.9060670231
21.6918488139
16.1903030742
11.4246458937
19.5414852392
12.8508261251
11.6182762767
17.2259233791
33.3676834485
25.072603766
11.0005835908
10.5143729075
48.7340361603
25.5849957968
27.1388915993
19.7943446507
16.3101312032
14.8670570205
9.58900880979
20.2250258579
26.9310450801
26.5933780061
26.2820145306
34.3047226388
8.52366972005
7.75679474036
26.8584024903
10.0073302374
8.55282423629
5.35727764206
42.3223044717
38.2954122431
38.1027485042
37.5529963072
10.7662945487
47.277232351
11.944089479
47.0595642732
37.4025461961
37.6061044729
11.932072571
13.6352895031
49.7117713933
12.2542501951
41.0479210789
15.2355621994
13.205465599
6.41201940408
5.7524380492
9.4779633744
20.3243018074
266.461750822
21.6481320558
16.7013834071
19.2784766155
14.3122030303
1194.79135473
20.9478565737
28.2675716366
32.1345693742
297.109150831
1213.12507147
35.0058969539
45.1592833199
31.7551177449
19.6922680277
39.3972909906
74.4700094311
52.2168287149
28.0327373612
56.6330135469
27.8486422516
59.8103578798
11.9372152754
60.300146382
39.5818729024
47.9924438837
9.11419147159
47.5220798883
12.8388833875
58.5999127286
11.1836249452
10.3449272156
46.8313257981
14.2715261793
11.9547641276
5.94171718069
48.800762059
13.8074883435
14.2202888966
15.8824303183
41.4320616117
13.7033970464
15.7135221664
50.5657127745
14.2835851169
15.5363248522
41.5773761577
15.5707450004
15.1803960459
6.68463151499
30.9552656832
5.1573047479
44.2574696328
180.011893502
5.33835235441
38658.1220753
12676.1138317
4188.98140575
175657.784244
181126.214871
32908.8049891
8416.29174811
1189.41602643
4060.70987918
252.691845778
910.254427851
175611.801019
176512.91901
176103.808665
178941.40007
176316.798853
173666.921267
174554.894671
172953.345892
37877.4628728
38809.2243613
35437.5793565
34466.7472687
33601.1502825
32876.5209011
33514.95106
34041.3647848
14939.7340979
14860.5185001
18272.911728
17067.9249553
16239.6952443
16459.0427323
17292.3159548
17047.3645005
17104.5090175
16186.491745
4778.16720361
5743.13249597
5118.92276525
6592.14384089
7006.73187584
7247.61096807
6947.57367019
6129.40145496
7276.63166057
1125.50582281
2192.04821435
2448.48495061
1698.83326602
2164.45694335
2036.27854721
2143.64882334
2407.35069
2181.32495058
2229.91146731
2404.76832641
109.929973469
533.284434694
656.684499085
400.391392567
88.0591444868
55.0734221802
100.514814842
832.072767418
718.447317242
101.433246462
99.865930672
781.541620385
50.6688230859
67.5524765419
75.6144986494
760.114776636
54.3860100076
54.1193571998
56.4471541963
99.236358894
76.073222071
590.057678099
869.944968608
62.8603932417
103.031554203
894.678442977
172672.00171
173035.670832
173941.854923
178243.123092
176656.264293
175430.758401
179755.197435
35730.969678
36407.1693932
36230.970072
38989.128901
39069.0172806
40826.7524745
40072.6505977
30897.7071815
18164.1863272
15873.7989629
18387.9661816
10461.6257727
11905.2155247
14577.1426813
16267.6928381
8091.61289685
5634.86513677
6518.19586385
5729.93816936
3610.34741256
4706.39924124
5250.09108255
6158.56183811
6643.01175719
1664.30421035
2117.39750744
1806.51740804
2404.39484372
775.858177876
1283.82345484
1489.70125655
1722.67960597
1970.81045394
316.645142241
60.4774758967
90.5409170031
628.335874531
68.5958627469
647.599085539
82.4317815341
112.261118005
744.358908085
204.107296689
137.103860145
46.2769456763
421.521771915
283.267498616
506.502872491
59.4534157891
684.822457402
59.2669355926
92.1967000385
866.736519248
36.3366481539
51.1886313117
27.2245305398
38.1197766924
29.0475356004
14.5537024837
19.803538596
30.1343484206
157.169540245
149.906271658
206.650539359
236.463594213
205.000202502
148.285759755
118.751059986
52.2937952143
49.9810806049
61.7463564684
50.9166577124
28.1384687706
31.713973818
40.7990394583
36.5173082222
37.8098252941
34.9487176905
51.780074684
44.5262018209
46.5118783395
39.0596616858
38.96050859
10.4082506141
28.0388047831
12.9874339906
42.1414482205
9.8572607293
30.8071449012
14.627387876
11.0523029167
6.30114649638
55.7246614072
48.1488945925
51.2543919703
48.7338449802
41.8856878152
14.7338359489
17.7550772345
65.0215879275
65.4240874913
45.817298153
47.4642726882
17.4709061857
18.2993859003
62.5969302693
15.2864459703
45.0566664189
19.5475571809
16.0848758657
7.50737267069
43.8791545016
209.849457377
1177.57997962
190.193641167
21.5183987374
193.411993403
23.2215315706
4535.58264682
30.0490607627
292.948515841
327.836980693
1231.91541918
407.75773338
4368.46871821
44.0368893685
39.1400033184
27.0411894483
57.6035456362
533.354946243
52.843758779
36.9636720772
74.4189064278
40.9532270267
107.348716055
48.7527555986
61.8829481228
58.4505851069
54.4645133592
36.9946017214
76.164125846
16.00829192
58.0057512882
61.7641380755
12.0218598473
46.5866207376
54.4543220237
16.5386143304
72.2945705308
13.1365361929
13.3627696643
47.9852513241
17.7373037384
14.6786585291
6.98008374685
54.5858308322
51.0590589626
19.775717625
17.9426381692
18.1677374284
45.3776330825
16.9795800349
44.2944677236
18.3639998017
19.4307641222
60.4560314607
16.9506298546
17.8819585771
45.5267449198
19.6240156439
18.1050040055
7.63758135536
202.994698163
34.6509845386
300.07526811
938.242502419
178770.390244
39545.1801407
15116.1295317
184904.928008
34290.9046034
6468.64908052
13571.791003
1648.01665374
3531.49927407
173463.993315
173292.244073
177503.622797
176464.940895
175753.65753
175275.493338
175074.066155
174616.462889
40542.1275055
35951.6373501
38025.8237856
39464.9434174
33357.8464396
33631.2978708
34557.1504098
34643.2301765
35508.7181913
32558.723022
16969.0281014
15597.928873
15062.0807538
17523.0292725
16955.4277786
17291.1986085
16683.4487285
15742.3927069
16804.9504553
4299.59698647
6846.40591723
7127.25951347
6007.54317614
6297.23202355
6321.86073869
6920.09015877
7474.36391295
7007.07799177
6951.03428071
7316.22845678
1827.84213749
2076.98122361
1497.11853545
2498.80266343
2265.30031963
2462.40625048
2391.73556259
1948.95692664
2771.05188528
2812.54357536
681.342607588
824.419419772
87.5280805802
99.5023936041
124.110246486
757.215673689
759.600094701
101.334134451
702.651099493
116.231036621
824.335300907
64.0035777029
77.9128212889
783.542047607
55.9004775545
98.7036793816
81.0904242934
812.626671614
128.173822579
829.659555754
751.441414227
68.2032220614
101.128286436
122.436622546
928.464805428
173723.851196
173303.081357
174329.754166
177655.591795
177905.890969
176376.834144
175055.059885
179381.796363
37210.7244966
34874.8833288
37572.001717
31980.4685247
32666.1766915
35925.5483348
36146.0427706
33488.359169
16409.485092
18086.3799015
16272.6483921
12564.5862895
13804.9631383
16234.5713191
17817.8081357
18336.7656846
7671.18148877
6675.38819844
5835.76380279
7055.994334
3187.99478463
4114.95908974
4583.56425452
5115.61070259
5751.95453284
1628.27194337
1956.9856845
2201.02283499
2147.38012359
939.02635356
736.571799233
1534.44853463
1234.23188229
1764.06898065
2192.47018608
2575.09224482
230.137534929
60.2050730781
89.5316864464
52.6247328769
799.258817279
86.0088086312
629.300330922
91.3984911722
74.4752456458
124.779652913
930.940501746
413.810209087
334.596457703
424.516639746
85.2747515023
543.843333052
134.381007746
726.632100795
40.886283797
43.0012627632
42.1482231223
222.765804578
32.5657442867
318.010956779
792.634046038
795.353570901
974.870092041
1078.03400191
295.815696239
984.308914187
746.345336709
665.235023766
410.674366256
71.9075501719
43.5527462067
40.9849054634
48.9193488307
46.9391718779
82.3304169278
48.5639950582
43.3008910297
68.9349295011
68.9991867062
45.0053799843
66.5745566024
42.9800332609
36.867683485
67.2523243971
30.5580537479
53.0549518541
54.1013483114
13.3313169302
32.2303281387
51.8486169075
16.8746222401
12.6382615856
39.0793275151
17.9888612991
13.8270635998
7.47901227251
82.6231254102
80.8289026098
79.1378404329
123.465784861
65.4275497913
65.4750052933
57.5122117817
57.245973677
21.1890340062
23.9600911942
60.9309550183
48.8373730292
50.0767809576
23.4026533512
22.307186384
61.3140366328
18.3875854556
47.7092933981
22.9718611206
19.596678596
8.78083054253
265.81013551
950.812777936
4322.9160221
932.374588536
246.180975885
979.263959355
254.123823583
16738.2275126
333.695298253
1291.98359836
1387.84332762
378.434417627
4392.05719919
1634.05369477
375.802717547
14455.3145777
59.0701406493
335.970175492
490.01858203
1937.87866166
53.5536682828
73.9947099749
61.9823360155
62.0817391257
77.3880495037
606.912336978
600.244867423
61.4129805709
78.2742548347
53.932969835
73.4912266149
86.1191734429
45.9170769106
77.3491941645
47.9208272971
60.178816822
71.3271985133
68.724658249
14.9875334117
16.9864060993
47.9799299344
19.8490378983
68.5220029866
16.7099003617
17.0132615083
52.8410302889
21.1798189854
18.5840756996
8.17404310893
114.183381361
62.0222411484
62.2751911414
56.1980172632
46.3542280925
24.0907182178
58.227756778
21.9169968083
63.2928040859
19.8632518343
45.8215961595
22.1413107616
23.6485390899
56.4833660266
21.9820471136
20.9920985842
46.3484495661
23.6434023584
22.1977374792
8.72158620737
1211.34242056
218.616977285
1835.02410856
3974.59350502
175475.023457
39682.598259
181384.348654
30511.1507718
40302.5412457
8681.68274394
11696.5100298
175265.084056
175693.883939
177366.441504
175637.877521
175534.861551
175723.61646
175242.768036
175018.401405
174170.079006
175490.607587
38656.2968324
34072.0284963
33617.3452745
35432.8202587
34179.9312998
34111.8243305
33487.8949306
34172.3323342
34219.9778025
15968.4527622
18167.1680628
18237.8608939
17816.7400814
16491.0916419
16264.4381847
16133.4633668
16893.4529796
16965.1922132
16010.4780207
16205.193945
5671.64972991
6101.63797123
5103.55731382
7271.92647993
7087.49396008
7686.24934158
7531.7804452
6212.10951646
7996.31373163
8076.26036769
2249.25627791
2532.84388477
2232.96547224
2261.17953144
2177.08780603
2565.56010183
2473.02009295
2609.11695685
2595.54062883
2332.36578171
2889.22600521
631.844613946
112.725667047
92.14246591
868.847709926
935.298081862
62.9598928837
107.116945512
806.111403326
125.246733397
763.726615166
71.7502358668
85.6571511832
967.204278671
80.8663052176
117.830732416
722.576689186
128.93481255
101.055629954
953.486054315
904.446024139
86.5331035035
104.563391144
883.510422612
173687.471606
174502.782439
174266.149987