/*--------------------------------*- C++ -*----------------------------------*\
  =========                 |
  \\      /  F ield         | OpenFOAM: The Open Source CFD Toolbox
   \\    /   O peration     | Website:  https://openfoam.org
    \\  /    A nd           | Version:  10
     \\/     M anipulation  |
\*---------------------------------------------------------------------------*/
FoamFile
{
    format      ascii;
    class       volScalarField;
    location    "27";
    object      Tr;
}
// * * * * * * * * * * * * * * * * * * * * * * * * * * * * * * * * * * * * * //

dimensions      [0 0 0 0 0 0 0];

internalField   nonuniform List<scalar> 
204806
(
11.7937
10.2559
8.93112
8.97891
11.1956
10.7458
7.30198
0.0619881
11.3011
0.00818649
8.33441
11.7267
11.3561
10.7144
7.1219
0.0776251
10.4035
8.40745
11.4631
11.1715
11.4741
11.527
0.0072963
9.21018
0.0643015
8.709
10.8462
11.5126
7.24835
7.56212
7.48818
10.5264
9.95741
8.96611
0.0473934
10.4303
0.0127638
11.4433
11.5698
6.91398
11.2535
8.96887
11.8799
11.2968
7.15509
10.4634
10.3193
11.0583
10.0922
0.0393673
10.8027
7.25193
0.0447794
6.87791
8.48562
10.9777
11.8371
7.66205
7.64164
7.21201
7.01196
7.53635
10.822
7.20844
8.63909
11.7887
10.4281
8.92994
11.4607
10.7166
11.8948
7.88531
7.99395
10.0397
11.0382
9.74362
9.72299
7.26402
11.238
7.26449
9.79995
10.7445
11.1177
11.7483
6.92045
7.56615
11.4957
7.41188
11.9354
8.02948
11.4022
7.47367
7.43842
10.4721
10.895
6.94962
8.69081
0.0196039
11.62
0.0157052
8.11355
12.3066
12.7428
7.57554
7.41127
11.6355
7.60661
0.0698562
11.5608
7.68634
7.59515
11.311
0.0785499
11.4002
11.5531
9.93179
7.21501
6.94631
7.10632
0.0138051
11.3572
0.0773917
0.00665481
0.0756903
7.99765
7.5178
7.52543
7.16003
11.2663
11.2285
10.5043
6.91752
0.0383487
10.4342
11.3372
11.1734
7.13651
6.83556
8.70004
7.04196
7.15635
11.2198
7.60779
6.92946
13.8301
7.18629
7.08952
9.08271
12.2015
10.8277
10.8826
7.55326
7.35446
7.48571
7.4039
11.5642
11.1481
7.2252
12.0606
8.60143
11.507
11.0597
11.8793
7.86592
9.20004
10.7728
10.9179
10.3379
6.89829
8.02176
8.92188
11.4309
7.38335
7.24019
7.30545
8.35555
11.7964
7.59642
9.75627
12.1912
8.23853
7.90772
0.0600205
11.2958
8.9498
0.0603928
6.87876
10.2091
10.3757
0.00219794
9.92349
10.3627
8.50308
6.94563
13.2196
12.3015
9.15326
7.84433
8.45148
12.2608
7.51577
7.6078
12.5581
7.25647
12.9836
11.6601
7.40393
12.6151
6.94091
7.62772
0.0670727
7.11823
8.06613
10.8406
7.13146
9.8084
11.0143
10.0957
8.19552
11.9807
9.84669
7.50419
7.20685
0.00355772
7.22205
7.22284
0.0698766
11.414
9.24056
11.441
11.3477
11.4492
9.63286
9.50104
8.09102
0.0480347
11.3737
0.0382377
10.1859
9.75438
11.4751
7.24323
11.8066
12.1416
0.068374
7.01679
10.7256
14.6069
10.7422
12.4925
8.72613
11.1285
6.92417
12.632
11.4633
7.66766
11.5125
11.6497
10.2058
7.91438
7.03003
7.39358
7.31956
10.1699
11.0058
7.08021
7.20141
0.00933998
7.53782
8.75423
0.0787712
10.9029
7.75752
0.0603008
11.8188
7.71825
7.18415
7.47346
12.4363
6.92468
11.7114
11.7489
9.62136
0.000291003
10.8589
11.6339
10.3056
10.4195
7.18776
11.3273
0.0776029
6.95146
12.0143
0.077871
7.12977
11.2654
12.3318
7.09473
7.06896
7.12824
0.0790586
10.8764
11.6195
8.80913
7.67883
7.09525
11.6038
10.7284
11.9655
9.29244
7.03587
10.9677
0.0724566
7.87728
7.10017
11.8361
8.46305
7.63379
8.05905
7.33129
0.0715183
0.00744911
8.42592
10.9114
12.3377
12.2384
10.9189
9.72939
7.02762
7.2788
9.31676
10.1544
7.50534
7.22621
7.3939
7.83378
11.227
10.1209
7.66395
9.07233
6.94956
7.16202
11.4759
8.5543
12.3067
12.1931
7.45019
0.0146783
7.62274
11.4217
7.50114
7.12079
10.7653
10.8106
8.41808
7.59081
10.1348
0.0754634
0.0783525
10.7821
9.00918
8.86205
11.2091
7.62098
7.69692
6.92055
7.53044
11.0433
9.2588
9.28423
7.7259
7.19349
0.0753036
10.2349
9.40341
0.0945831
7.46324
7.22089
10.9499
7.11615
11.225
6.84629
7.30408
0.0444974
7.60685
7.0892
7.3884
25.1477
7.94536
6.96871
6.92287
6.93198
6.99394
11.9529
7.59792
7.44307
7.27993
0.0119971
11.0359
11.7832
7.11986
11.8251
11.1866
0.0733658
7.24002
7.06258
7.22726
13.2739
10.9412
8.51429
7.55769
7.84381
0.077084
0.0759641
14.1721
7.04425
8.45788
10.8102
7.68494
6.95596
9.37549
12.0628
11.8728
13.0725
7.18254
7.21707
6.89813
10.1242
10.67
7.54291
7.54145
7.12651
10.1606
11.7012
8.94635
7.54363
7.76733
11.2037
9.96234
9.18076
0.0774286
0.0534599
11.0694
10.9873
0.0542892
7.68386
12.2061
7.60535
0.011506
7.82488
11.6522
10.5547
0.0554714
7.69873
10.0736
9.65742
8.37423
11.7779
7.56517
7.10051
11.3419
6.91245
12.5111
8.23298
0.0113715
0.0714688
7.14371
23.3326
7.27093
6.96374
6.92166
6.91712
0.00033315
7.16313
7.26977
8.81912
0.0779053
0.0326056
7.42892
7.79207
7.10579
10.9142
7.16745
7.64003
7.49718
0.0701443
8.27201
7.36652
11.1628
11.0523
7.65714
9.9499
7.38379
7.09393
7.39142
7.23792
7.68754
0.0591046
7.19374
7.20444
7.66988
7.1569
0.00611285
10.7832
7.19728
7.25393
0.0154516
0.0449591
0.0420747
7.38235
7.1116
6.92021
0.0474437
7.17785
0.00175779
5.87052
6.93757
7.44576
0.0571487
8.70378
0.0285807
8.06627
7.41658
7.78317
10.7966
10.8826
10.688
7.54597
9.35683
0.0761588
7.8783
11.7648
12.2439
11.9519
7.04198
0.0330612
0.0440991
0.01529
7.56327
0.0562428
10.9968
12.0326
11.707
12.0699
8.13051
6.94539
0.0776315
11.6158
0.0675829
11.1114
6.91259
7.06997
6.92
0.0598137
9.05533
10.7967
9.2844
26.5573
7.05993
7.12204
7.01163
7.09596
0.0612141
20.3462
7.91828
9.34756
6.94133
6.92122
0.0115101
9.71243
7.46536
6.9319
10.5811
7.39438
0.0692409
7.32822
6.92357
8.7901
11.1019
10.7538
8.36304
7.04352
10.8383
11.1485
12.0872
7.14302
8.07852
0.0316769
0.00845416
0.0762147
7.18022
9.20645
0.0292766
0.0052129
7.57713
8.04999
9.4185
10.3945
11.2675
11.7421
12.522
0.0483766
7.5961
6.92582
9.39637
7.14653
0.059484
7.16433
7.1158
7.12432
6.76939
7.20247
0.0722959
7.16715
11.7321
7.19864
7.36483
9.5018
6.92311
7.90686
7.26166
10.7497
7.68986
11.9188
9.06328
7.21829
7.70966
7.18084
8.94681
7.05909
7.39887
10.2808
0.0653708
0.0576413
0.0710814
7.23431
0.0691226
6.91461
10.4326
0.0587307
0.0569439
7.08023
11.6854
7.65882
6.91799
12.283
8.59637
0.0530119
10.0345
11.5616
9.65828
6.92156
7.25147
6.92344
6.93556
7.12721
7.10188
7.18041
7.1307
0.0260069
10.5798
7.25545
6.86115
7.08229
7.08694
8.12273
0.0830453
7.53028
9.37342
6.90967
7.21986
0.0437047
7.1963
6.91462
8.01981
12.6577
0.00331653
11.165
0.0748342
7.11867
9.66599
7.40459
10.1719
8.53195
7.75275
6.99366
10.3081
7.12034
7.15053
10.9341
7.69871
8.83691
7.94651
6.94302
7.33552
10.9204
8.50351
7.21795
7.7913
7.00809
9.04887
11.1264
9.82839
9.23602
7.1127
8.77019
7.15969
7.20757
12.508
11.7227
7.02055
7.2995
7.10214
7.09037
10.2511
7.1343
7.16168
7.17407
7.09739
9.58314
7.38338
9.8586
7.14663
12.0099
7.62328
7.01496
8.22779
10.9103
7.72299
11.389
11.1803
7.81059
7.52817
8.07951
10.6207
7.44712
7.41395
7.29808
12.1362
6.9283
8.14506
0.0161386
7.11638
7.16683
0.0614431
6.95157
6.93651
0.0646343
7.18441
10.4041
11.9698
13.0478
6.98974
10.8262
7.71474
7.21504
10.3026
11.2787
12.6705
0.0385027
7.10733
0.0605153
7.11759
8.12317
7.03909
7.06847
7.22844
7.39816
7.12903
7.12835
0.0419671
7.21405
7.78385
7.39158
7.10298
7.23025
7.10485
7.27051
7.16506
6.93135
8.61205
7.35398
9.54407
10.672
8.49237
12.4514
11.0109
7.62109
0.00565494
7.58486
12.1412
7.97621
13.4049
10.9195
11.7479
9.93718
13.0848
6.88749
0.00148675
7.40732
6.92594
10.024
8.76123
7.16507
0.0379087
0.0764397
7.16782
6.95071
6.94794
10.6461
9.89094
7.63633
7.09014
11.0559
7.88721
8.94942
7.17877
7.47363
11.7689
11.6577
11.4828
7.28434
7.12555
7.68752
-0.199508
7.39224
7.29688
7.38791
7.15494
6.90174
11.2083
11.2999
0.00105819
0.0588795
6.93477
0.0694976
7.02095
7.23638
7.13173
6.87167
10.4957
10.587
6.94139
12.3114
11.9314
7.42325
6.92792
7.8797
9.90015
12.5241
0.0184517
7.16149
10.3075
0.00125256
9.52858
9.48949
10.4502
7.20472
6.8946
6.78605
10.5529
0.0597563
7.144
0.011263
7.00344
0.0308724
7.01054
7.06902
7.22443
8.16894
24.407
10.9437
12.0903
8.0051
7.3435
7.4197
11.325
7.22897
7.48617
11.0706
7.39348
7.08286
7.12285
7.15851
7.10249
12.4981
0.0319665
7.13331
8.30038
6.92564
7.45831
7.08714
7.02854
11.2597
18.4314
7.74336
6.91993
7.7886
7.4266
0.0322286
0.0423525
9.88071
6.92769
8.25893
7.02872
12.3705
7.40494
0.0165206
9.58701
8.45405
0.0297606
10.0562
6.88004
7.21903
10.9375
11.0957
12.9808
12.3667
6.91717
6.85338
0.0159882
6.94821
7.19634
6.94591
0.0288811
6.91705
6.97806
7.06555
12.009
10.6162
12.2991
7.52357
6.94716
10.1825
12.3419
7.76328
8.22612
11.8611
11.2472
12.9318
7.1031
7.10165
12.8899
6.98062
12.1498
7.64605
7.36931
8.97602
0.00235526
0.00203374
10.3992
7.08731
9.01565
12.5006
7.09389
7.12538
7.20571
7.13237
7.5687
10.857
10.2979
6.91141
10.5408
10.6147
7.63377
7.63478
7.96028
11.4848
10.8849
7.62514
7.97225
0.0613893
7.53725
9.98577
12.8583
7.3101
9.77673
12.43
7.46931
7.07791
9.91153
7.13756
10.5505
0.0396002
0.00187772
0.0542424
7.3948
0.0231287
7.11323
7.11497
10.9931
8.00079
0.0720046
11.9491
7.08512
7.85436
6.75677
7.53838
10.7938
0.07686
0.00920407
7.04547
7.07364
6.8557
7.13382
7.06766
6.98083
7.29636
7.08678
7.20151
7.05862
7.13717
0.0470761
5.61219
7.0541
9.34548
0.0506976
7.15189
7.02654
0.061392
7.12443
0.207637
7.55318
0.0386381
6.85508
11.8362
6.97767
7.19192
11.187
0.00877809
8.27144
9.94789
10.5041
0.00153672
9.25355
10.5767
7.55104
0.0393702
9.01339
6.85333
8.87403
9.49718
8.91056
7.13403
9.34084
7.17961
7.91084
7.16105
0.0312187
7.11495
0.0314038
7.88613
9.80796
9.27915
12.8402
9.46213
10.2669
7.15598
8.11331
7.11177
9.95723
12.2462
7.55033
9.33631
6.96861
7.25777
8.61753
0.0116653
12.7986
7.15984
7.09649
7.14652
7.77163
11.1613
7.35244
7.49144
7.30937
7.40497
7.54165
6.99862
7.29416
7.04939
7.48403
0.0640099
7.17308
7.77209
6.90962
7.02944
7.03498
10.105
7.30871
7.11324
7.10516
0.0463102
7.11484
6.91491
10.3695
8.3735
8.20369
7.60976
6.93997
10.8181
8.59259
0.0460003
7.60853
0.0411245
11.9071
6.77407
7.17512
6.91634
7.28691
7.03879
7.75083
7.80865
11.0591
10.2976
6.9187
0.057027
7.63299
11.2314
7.10381
7.10817
6.92798
6.90401
6.91066
0.0754563
8.1199
0.0130501
0.0126001
13.3607
11.529
0.0552502
10.8419
9.54821
10.6395
8.46389
7.18215
12.9422
7.07484
11.1701
13.0956
6.45589
11.2142
0.0660653
7.11593
7.104
6.96768
7.82406
7.09246
0.0757097
7.531
7.71474
7.1252
7.42734
10.4395
6.91922
7.32836
7.03777
10.5926
7.03232
7.87431
11.2172
7.05463
7.03056
7.12164
7.03694
0.0714641
7.21201
6.92744
0.0751824
8.86548
0.0406151
7.21124
7.28573
11.5866
9.67318
11.3732
7.42665
0.045029
7.9992
10.2606
8.56397
7.45032
12.8572
7.2639
6.94051
12.2966
6.92206
0.00165587
0.0128172
7.03346
8.58157
0.000578401
0.0133029
0.0762457
11.3418
7.75187
7.70276
9.56239
11.9997
0.0070151
11.4571
7.65769
0.0318603
7.0963
0.0566062
10.6577
10.7943
6.92383
8.26323
7.93494
0.0309395
7.78157
0.0457429
8.51032
0.0788433
7.34418
9.87089
7.17179
0.055297
10.927
11.0884
12.0429
11.0319
0.0636831
10.2442
7.1865
12.7406
12.145
9.95061
7.37091
11.1475
7.20474
7.22917
7.08355
7.07064
7.10004
7.1109
7.41754
0.0604136
7.31126
7.41521
6.93029
7.20168
9.8323
7.53433
9.01488
6.9141
7.04469
7.07697
7.05894
7.12546
12.5342
7.50602
7.98888
7.0186
7.33515
9.99908
9.72886
7.08579
26.2322
7.32427
0.0698982
11.0663
6.94636
7.13698
7.05949
7.12431
11.362
7.00516
7.4689
7.621
7.1904
11.9779
0.0636687
9.23046
0.0569283
7.22999
8.28182
7.095
6.97744
6.85365
10.8284
10.3488
0.0117407
12.4665
7.72304
7.22561
7.3019
7.71536
7.12741
7.38518
7.10747
7.75008
7.1209
8.72398
0.0604075
0.0579752
6.90649
0.00732358
0.0707303
7.10632
8.32536
8.27586
11.2012
7.1308
7.01743
0.0316004
10.1087
0.0492278
11.3894
7.84544
11.9676
11.7361
0.0726726
6.91682
7.0337
0.0765537
10.0527
8.79066
10.8738
10.6541
9.37048
6.91791
10.527
11.0196
6.91421
11.0212
7.49359
10.9266
0.0230126
7.1381
6.15488
11.0405
0.0171544
0.0551332
0.0781896
6.95057
0.0116421
0.00149881
7.09844
10.8011
12.5092
6.83337
12.5416
0.0774249
10.8543
10.8378
6.99134
7.14719
11.6731
11.4726
7.57421
7.23242
0.0473518
7.03818
7.07126
7.55538
6.99253
7.26081
0.0125959
0.021698
7.53044
7.14004
7.25046
7.01878
7.13581
11.7625
7.14058
7.22902
7.15386
8.26988
7.0519
6.97644
0.119128
7.07135
12.606
7.44581
7.44013
11.9549
7.14054
11.5637
7.58631
6.93945
2.63151
7.08825
8.18633
7.10584
7.54799
7.65664
7.16783
6.99824
7.17688
7.12307
6.97412
9.28676
11.1565
7.66064
7.84062
6.96627
7.60599
7.83424
0.0285062
7.15733
10.6246
8.53604
9.56135
7.15674
7.17727
8.05074
0.0711755
7.20578
7.12861
7.32563
7.08508
7.62388
7.63177
8.40646
7.5844
7.54852
12.5328
0.0743754
0.000128576
7.11564
7.13903
10.7197
7.14836
7.13935
6.9835
7.14024
7.24965
7.10325
7.11216
7.10703
6.9263
6.93817
12.0133
0.0163965
6.9138
6.83572
7.15002
7.26842
7.54877
7.04581
7.17435
6.9047
7.80013
7.24629
10.2418
8.17715
7.21
0.0596132
7.10435
12.5468
0.0646945
13.2174
12.0032
7.22345
7.14174
9.54582
7.90208
7.27101
7.15628
7.74275
7.15151
6.94954
7.23569
7.20881
11.6037
7.22958
7.93682
10.6578
7.1228
0.000552387
11.9154
8.08232
7.018
6.91028
0.0492689
7.09089
7.06669
7.53131
0.0282714
7.03095
7.99219
7.10946
10.9889
6.94174
6.91941
9.9526
7.3236
10.9806
7.09746
14.4474
11.2197
13.3461
7.03167
7.00153
7.51788
7.12148
6.93298
7.55377
8.01884
7.50042
7.13037
9.4891
7.11018
7.07001
7.48727
8.09468
7.01702
7.23261
7.1867
7.06936
7.05988
7.29881
10.8759
7.17734
7.45544
7.5796
7.3439
7.26458
0.0604846
7.43755
11.977
7.14317
0.0222479
0.0102045
7.1573
0.0629075
8.13909
0.0114059
6.99889
6.83661
7.09868
6.95911
7.27389
7.16329
7.11553
7.38953
7.39013
7.38548
0.00960034
0.0230729
7.41105
9.12226
10.0454
0.0704164
7.13126
7.99421
7.3756
12.7187
7.11242
0.00255619
12.4023
8.78143
7.13157
0.00762893
7.1657
7.11784
7.107
7.06321
6.9852
10.0288
0.0260741
0.00407797
7.48929
7.27661
7.74281
6.93602
7.21074
7.21197
7.33882
7.58336
0.0128942
8.45069
7.63261
7.91894
7.11979
0.0026852
7.1035
7.21725
7.13045
0.0064326
6.9099
7.51971
6.94837
7.29324
6.88075
14.3687
0.00411208
7.24005
7.18466
0.0382831
7.09242
7.86429
7.1245
7.13479
7.21635
6.89478
6.93602
0.00338039
12.7551
8.36214
7.51208
7.3531
9.89077
7.22971
10.3781
7.43647
7.43117
12.4189
11.9786
7.21914
0.076657
7.84651
7.45232
10.8721
0.0129909
7.53943
12.4444
0.0134347
6.94186
0.061726
0.0346375
0.0734429
7.12328
13.0533
7.10835
10.9989
10.9044
9.34874
7.33573
7.08091
8.52582
10.7238
0.0461937
7.11209
0.0159054
7.20338
6.96541
0.00696945
0.0611915
7.16825
7.13463
7.5747
7.11624
8.04045
6.99505
7.16034
0.059532
10.1297
7.06756
7.41188
7.16171
10.2985
8.14768
7.14376
7.00442
7.13241
0.0782692
7.12449
7.1176
7.42203
7.11076
7.20281
7.2034
7.32108
10.0317
7.12202
7.90512
10.8483
7.08572
7.36462
7.10574
7.76937
6.9485
7.38279
7.10813
11.1051
8.11404
12.7823
11.4618
7.16535
6.25497
6.96091
7.14668
7.98925
7.00283
7.8593
7.11886
7.46403
8.0435
7.97344
7.20256
11.6511
0.0681385
7.0997
6.84072
0.0413436
10.4373
7.23473
7.18721
7.24165
7.71758
11.0638
10.7279
0.066604
7.96454
6.92643
7.41726
7.11373
6.89075
7.08063
7.16398
13.4481
7.10061
6.91782
7.21461
0.0738948
7.44259
7.09368
7.23247
7.14608
7.36164
7.17864
7.94299
7.45968
7.2073
6.37371
6.66312
7.39377
9.42366
0.0713302
12.1462
8.0968
7.3964
6.92956
8.26749
0.0437366
8.60172
7.10893
7.39584
7.73297
0.011658
0.012301
0.00818284
6.8953
6.92583
6.97804
9.77741
0.0660016
11.1608
7.32953
8.79567
7.24788
7.17571
12.7696
6.88404
6.90727
7.21538
7.1476
0.0479295
12.2661
7.39973
9.80222
0.076078
8.68744
10.5931
11.7634
7.00426
6.92554
10.8837
6.83845
0.342576
11.1173
11.1208
9.83581
6.92158
9.54089
11.0152
12.8898
7.0986
6.94102
7.19122
0.0474679
9.52262
6.95079
0.0764181
11.5682
8.9121
9.76882
7.20475
9.09157
6.93128
8.5449
7.59346
8.83314
11.213
7.20649
10.601
8.4695
11.0954
7.2458
10.611
9.73243
6.93392
7.50166
7.78056
0.0336742
7.57532
6.89731
7.095
8.88481
7.60396
0.0394426
0.0570841
7.44496
6.91804
12.8352
8.16871
0.00825006
7.02125
0.0596069
9.59186
6.94327
7.05004
7.41203
7.39058
7.61414
7.02968
7.63291
7.58052
7.13284
0.0072307
10.2609
12.4275
7.10837
7.13301
8.06209
7.39459
7.61311
7.20624
7.12614
6.90454
7.00572
7.13127
7.2563
7.44316
7.39067
0.0077658
0.0106481
4.24673
7.11751
6.78797
7.18976
7.08711
10.505
0.0141455
6.91535
7.18889
0.000257228
0.0666464
8.40809
7.44579
7.56968
9.17371
7.10396
11.1639
7.15866
7.58357
7.10455
7.37441
9.89897
9.89933
6.84696
7.38656
6.99852
7.66312
9.28351
10.5998
5.31953
7.60872
0.0352816
7.20528
7.09754
7.10512
7.57389
0.0504496
7.16501
7.15853
7.12298
7.08915
7.06404
7.08814
7.15477
6.99399
7.35134
0.0540089
7.04261
6.93065
7.12744
7.01762
7.27008
7.08643
6.99954
0.0607149
7.48817
6.89838
8.66437
7.0848
7.10621
7.13429
0.00802388
7.77796
0.00895917
7.14403
7.14086
6.85531
7.15292
7.07153
10.7563
0.0767853
6.8791
6.86694
8.47607
6.93962
7.49102
0.00524586
7.48609
7.24574
7.50726
0.00104458
7.13372
7.55417
7.52907
7.33101
8.63252
11.8746
7.05477
6.93244
6.91813
7.16378
7.56034
9.14583
0.0369355
6.92036
7.16114
6.91088
13.5458
7.80177
6.90804
10.223
0.0664604
7.53017
9.60568
0.0629511
0.0607209
6.94609
7.20243
10.9587
7.14551
11.0508
7.20617
0.000438292
6.94246
7.45121
6.94557
8.99367
0.0689054
7.18751
0.0731703
10.49
7.96489
7.12351
0.0781774
7.12398
12.1716
0.00707985
7.81313
12.3689
0.0205855
7.02542
11.2407
13.5952
7.3862
9.44596
7.39753
7.92169
7.08603
7.26318
8.08085
7.1572
7.42606
7.14692
10.9786
7.27261
9.43465
0.0171496
7.80305
0.0143205
7.2751
9.57715
6.95045
24.5148
7.23711
7.8633
7.88405
7.38339
7.52818
7.18271
10.2028
11.6086
0.0263425
7.61795
6.91294
7.82054
11.7329
12.2613
6.84196
7.56788
7.21278
7.67026
6.94382
0.0688729
7.21237
0.0552296
7.14883
7.06926
11.8135
7.16665
7.09312
7.71004
7.15281
0.0724737
7.42243
8.26838
7.16544
10.4039
7.92315
6.95056
7.97754
9.28705
9.75417
7.07057
7.53314
7.35254
10.2357
12.6361
6.47217
10.1525
7.89291
11.1243
7.14051
12.8915
7.18042
7.59398
7.56633
7.84189
7.19884
7.13178
7.16336
7.09219
0.0407284
7.33203
7.33566
11.8844
8.27752
7.11096
7.82909
7.33802
8.88551
6.94208
7.08002
7.2604
9.96393
8.7224
8.451
7.02542
7.12023
7.43478
7.0254
7.12816
7.14569
7.25141
7.67266
7.24868
12.0655
7.41841
7.17409
0.0104824
7.58342
7.04121
7.3513
7.54328
7.23747
7.41893
7.17212
7.1363
6.91607
0.0266218
7.11213
7.09354
7.79232
12.2067
0.0130385
7.05013
7.03704
10.8462
7.42208
7.25435
10.9643
7.09146
7.302
7.47598
9.69275
9.92852
0.00517367
7.22563
7.70597
0.00732184
9.31345
7.19316
7.11221
0.0676171
7.57778
7.84611
7.43716
7.68305
0.00716081
6.93017
11.3956
0.039631
7.51926
6.54238
9.68014
0.0689685
7.22997
6.864
7.79549
0.0702616
0.0278983
7.17831
7.12577
7.61458
0.0350902
7.20088
7.22206
7.4859
7.46982
0.0590649
9.12849
7.06641
9.03352
9.54017
9.75185
7.15122
7.62366
7.2265
8.48845
7.94571
12.7975
6.97391
7.54607
6.9003
9.46803
6.86713
0.0415667
7.91926
6.94142
7.20398
8.03826
10.1681
0.0762389
0.0682252
13.7784
12.0333
0.0111796
11.0098
8.01487
11.4036
8.21671
7.11532
8.11806
12.5205
7.15638
7.10577
10.2665
7.27328
7.41634
7.09647
7.00096
13.3252
6.91841
7.63699
9.98215
7.61429
7.83541
0.0297081
7.82364
6.43982
7.18977
7.22886
0.00997508
7.89891
11.8558
7.41097
7.54137
7.8257
10.8497
6.90144
7.15793
0.00525527
0.00440285
7.44341
8.2821
7.31544
7.07473
7.7196
7.56705
7.08638
7.00368
7.17556
7.08088
7.13144
0.00701471
7.22223
0.00889387
6.92479
7.10508
7.08213
10.5342
-0.141758
7.11999
0.0766424
8.7296
11.5913
6.95533
7.13652
0.0275996
7.30213
7.59306
7.49608
9.19291
7.06605
10.9264
11.0283
7.07089
7.2344
12.1901
7.52153
7.33453
7.46229
11.4951
6.99416
9.5284
7.42868
6.73607
7.21273
10.3022
7.21698
0.0608229
9.79821
7.4827
7.31287
9.87201
7.88798
7.40685
0.0670198
7.41368
7.35221
7.51514
8.44108
6.75817
10.4744
0.0574924
7.05949
7.26042
7.25405
7.57006
0.0336164
0.606221
6.94264
6.92723
7.13505
7.06309
7.23199
0.077095
7.07593
7.35342
7.095
11.8876
7.18868
7.10015
7.15062
7.11423
7.09292
7.03296
7.03357
9.44128
6.91387
7.1171
7.13512
7.14697
7.14835
0.0610621
7.10518
0.0133741
7.56257
10.0394
7.36773
0.0140614
11.0213
8.52062
10.4366
7.18977
9.42528
7.41999
11.3565
8.44341
9.52815
7.19635
7.17678
7.16239
7.43333
0.0515836
0.0605098
7.1212
0.01083
7.37837
0.00356135
0.0159067
8.45004
0.00648511
9.29003
0.019877
7.21836
0.0714449
0.0710958
8.59256
8.50356
12.4368
7.18841
6.92062
7.87081
6.94687
10.2144
7.83919
7.10903
10.4792
7.19218
7.67183
9.31734
7.54134
0.0733415
6.84115
0.00932504
6.98917
7.15308
10.8378
7.49158
2.22251
10.7786
7.26773
0.0548102
11.0424
12.5929
12.8369
7.17321
7.71506
7.15938
6.93906
7.11919
7.31671
0.0771315
7.46536
-0.00908302
7.70246
7.21219
7.18608
7.16956
11.9679
8.34828
8.81439
7.11788
6.97694
7.13956
6.9147
7.56576
7.41717
7.74083
7.18384
7.01283
7.57396
10.8828
7.74385
11.0948
7.41461
7.59604
7.35656
0.0791214
7.28531
7.32523
10.3515
7.53385
9.35016
7.08754
6.98522
7.14764
7.14727
7.17175
0.0669507
0.00197422
7.13408
7.17891
7.34375
7.2434
7.11865
7.21476
7.85495
7.06369
7.26676
9.12689
11.2295
7.03905
7.64928
6.10213
0.0437397
7.19749
7.10747
9.59432
7.12632
7.09746
7.13771
0.06721
7.25323
7.1391
7.16385
7.14148
6.94553
9.58314
8.59475
7.01032
7.05206
7.11408
7.19879
11.1279
7.10604
9.23682
7.4666
9.75359
0.0664455
7.48986
7.18726
8.88802
12.9019
7.47728
12.1119
7.06129
7.12005
7.67868
0.00325637
9.2748
7.18179
0.0582338
0.00337528
7.10275
0.00366219
7.10222
7.06483
7.51523
7.21199
7.35917
7.13527
7.09873
7.13513
7.05574
0.0136985
0.0209433
10.8697
7.1503
7.11851
0.0495842
0.0630538
8.10983
18.1188
0.0722139
11.3198
8.46897
7.21434
7.73211
7.37219
11.1577
7.49775
8.3504
7.39993
6.84533
6.94641
7.12953
7.28198
10.9951
7.18817
9.57778
11.257
0.0755823
7.82742
7.10274
6.95987
6.88873
11.8184
7.22736
11.6918
7.07529
7.41843
7.37255
0.0611109
7.02665
10.5356
7.37182
7.11998
6.9209
7.77117
7.2074
7.00377
9.47847
7.1822
7.91354
7.41865
12.4495
10.1107
7.77558
12.3574
7.45642
9.02928
7.73188
7.17716
6.9435
0.0251877
7.02209
6.94459
0.0760795
7.1538
6.93964
10.4414
8.12233
8.01811
8.16693
0.000142171
10.265
6.94737
11.2536
7.21225
7.97041
0.0227655
12.2197
0.00274346
11.2473
13.4033
7.46468
7.46079
7.1571
7.61758
0.0340674
9.02571
7.71263
0.0780904
7.7732
7.05483
7.40413
6.86422
7.15422
6.92361
7.54228
7.15197
7.15044
7.09844
7.10713
12.9598
7.32411
11.3973
7.14416
7.09501
7.10513
6.94157
0.0588738
0.0683981
7.80051
7.17216
7.66966
7.11408
12.276
7.62667
9.52569
0.0011505
7.16018
7.42863
7.63987
7.49407
6.97974
0.0149974
7.79381
7.22322
7.15498
7.07243
0.0656486
7.17872
7.09507
7.13594
7.01295
7.15525
7.73076
0.00826487
7.23684
7.08429
12.6603
11.5677
7.15561
7.52716
7.26335
12.6877
0.0105547
7.09851
0.00585033
9.15542
11.3379
7.02514
7.12603
6.93598
0.0665835
7.13213
8.33881
12.9369
6.8957
6.93631
7.12165
7.79604
7.2082
7.04897
7.12588
10.5717
7.16503
7.07982
7.14685
7.16496
6.82532
7.78674
7.12732
7.27646
7.23214
10.2324
0.0134856
7.16205
7.06146
0.0285298
7.24936
7.19438
7.20092
7.11094
7.83526
7.79864
7.10948
6.94566
10.1544
12.4168
9.60601
13.7254
0.00558856
8.4473
7.10592
7.09362
6.92267
7.09466
6.97751
7.16852
12.6254
7.14502
6.91648
0.0579369
7.11285
6.92898
7.13487
13.9996
7.16279
6.94029
0.0184474
6.94023
13.6809
13.6216
7.17592
8.20472
6.63684
7.54047
7.60227
0.00728394
7.4286
11.2754
11.1515
7.25486
7.18925
9.50832
7.1404
7.52889
7.22207
8.265
7.13789
9.52032
6.91756
10.2271
7.91132
7.90332
7.75105
7.47542
6.91031
0.0258018
0.063716
7.12769
7.56432
0.0579834
8.33976
6.92702
10.7905
7.97787
0.0495456
12.5085
10.419
7.42703
9.05909
10.2679
12.1325
9.0323
7.91297
7.99777
7.05543
6.96233
8.38297
7.2965
9.69424
0.00787428
9.55743
8.09633
10.3683
7.04488
0.0725337
0.0772162
8.6394
8.6881
6.92292
7.0734
7.2313
7.78159
12.7645
7.27434
7.60166
7.11445
11.0325
0.00295299
7.14714
7.74512
0.00887334
7.17929
9.01168
7.23742
7.1551
7.11927
0.0643293
7.10483
7.11342
6.85452
7.13384
7.36832
10.8167
7.20875
7.87076
7.14737
6.91777
0.0777704
8.9868
0.00565523
7.06368
7.98134
0.014006
7.37492
7.11454
7.90473
8.45313
7.36056
7.62705
0.00802409
6.98099
10.7441
7.47806
7.4537
8.60889
7.39528
7.13128
0.0618601
10.4826
9.66083
7.18858
7.27691
7.43649
8.10675
7.11196
6.90803
7.15087
7.10701
6.90862
7.04336
7.04675
7.3264
6.99012
7.37637
0.0696216
7.11489
7.14705
7.17508
7.13618
8.60785
7.2469
7.16968
6.92933
7.45288
7.26288
0.000467482
10.971
7.17584
7.40494
11.6495
7.15294
7.2673
7.10238
7.13744
0.0100642
7.38634
0.0501144
7.14304
7.17506
7.13965
7.12071
0.0756028
7.08648
7.22264
7.00603
7.0229
10.6257
7.21407
12.1063
7.18472
0.0654952
7.06937
7.14884
0.00472106
7.09041
7.12349
7.22661
7.15159
7.12579
7.20116
0.0673003
7.73953
7.16147
7.09946
7.1199
9.95751
7.17299
0.00989398
6.90448
8.48085
7.29738
7.06091
8.07739
7.21139
7.11269
7.08487
7.88785
7.4472
7.22601
7.24708
7.04313
7.5281
7.04382
7.0556
6.94235
6.9035
7.34476
7.44536
7.15303
7.13136
7.1338
7.18694
11.4945
7.14323
9.8386
0.0717754
0.0111588
7.21898
7.23481
11.7175
7.11892
7.74995
6.80164
7.22002
0.0616149
7.58324
7.22383
7.341
9.10385
9.56051
7.64542
7.22118
6.94883
0.0737533
7.75702
7.5139
7.44747
8.55182
11.0401
0.00224298
11.436
7.3146
7.12193
11.5197
0.0727343
0.0267316
0.0140376
0.00143594
9.28532
7.61646
0.0774529
7.98702
0.0655142
7.30464
9.11787
0.0113051
9.9746
9.58132
9.3982
7.68896
6.94717
7.28933
7.95886
7.11603
11.0359
0.00705378
8.86865
0.075555
7.12096
7.16443
0.0588482
10.7363
7.01754
7.70781
9.16495
10.0564
12.5068
11.0012
12.898
0.00504287
0.076072
7.66252
7.11711
7.81003
7.28392
11.0993
7.1972
7.10604
7.15242
7.10119
8.95549
7.18059
7.56953
7.1393
12.0825
7.09125
7.98346
7.31478
7.13593
7.0258
7.41334
11.0262
7.12528
9.9185
7.70831
9.36618
7.38555
6.91537
7.15925
0.0756234
7.29411
7.31611
8.35931
0.0767749
7.23593
7.37895
9.20357
7.6217
0.0732624
7.03317
6.91525
7.3169
7.11665
9.79097
7.12637
9.46728
7.24099
12.9435
7.15692
7.20661
0.0030372
7.24961
0.00299208
0.00899305
7.25711
7.67527
7.55704
6.94681
6.90465
9.72686
7.05087
7.08208
7.12814
6.88257
6.95533
7.34604
7.1042
6.94928
7.08478
10.3427
7.1457
7.1238
7.1145
7.02843
11.2294
0.00105876
7.53149
0.0627464
7.08023
7.28337
6.75743
6.94716
13.8718
12.391
7.02615
6.94777
7.06636
6.94757
7.03713
0.0562619
6.92078
7.14672
11.7209
7.19172
6.94577
0.00365539
6.94897
6.94311
2.93173
6.94655
6.94719
6.99331
7.00614
0.0275356
0.0443621
0.00696026
7.31124
0.00846736
7.66474
0.060255
6.95022
6.95014
0.0445098
6.94834
6.88929
7.12036
7.20736
7.11826
0.00282672
7.18041
7.17857
12.085
6.97364
6.91311
10.5415
8.25261
7.17232
7.61795
13.5446
15.0197
7.37933
7.23072
10.6596
7.20167
8.57779
7.06203
7.32351
7.10162
13.5331
0.00186124
7.08308
7.21783
7.01102
7.00627
14.0166
6.98909
9.21732
7.09795
9.61735
7.26959
6.9259
0.0527358
6.90442
6.81743
6.90923
7.01561
7.34957
8.18342
7.26923
7.11466
0.0679384
8.81099
11.4626
6.89348
10.7422
10.6029
0.0747445
7.1309
7.21842
11.6452
13.6514
6.01818
0.0676474
7.76394
7.18519
7.39961
7.22979
7.1036
8.24001
7.03323
11.1524
11.0886
10.6922
0.00160211
7.52829
11.2697
10.2386
0.0672756
7.14467
7.19262
10.0857
6.925
0.0563253
7.29888
6.95087
8.7147
7.15607
7.04782
7.48777
7.19934
7.23806
7.33743
7.30186
11.2588
13.6392
7.19983
0.00546315
7.13645
8.05119
7.10651
7.26117
6.66263
10.7363
7.11859
7.11295
7.13814
9.69843
7.16242
6.8788
0.0585788
6.94684
7.21267
7.23165
7.41185
0.0699054
0.0757203
11.2701
7.67726
7.09964
10.317
0.0475962
12.4628
10.8438
7.17846
7.41172
7.36436
7.11672
7.30028
6.98057
7.14188
7.12209
6.93125
7.08765
7.34251
6.99731
7.05336
7.11613
6.92835
11.9449
7.07479
7.10501
11.9393
7.04478
6.85305
7.36394
7.06179
7.43684
6.91574
7.1373
7.3249
7.60436
7.14864
7.1105
7.11453
0.0386374
7.08986
7.10036
10.4919
11.2209
10.6365
7.48523
7.12773
11.6545
7.11381
7.06802
7.11745
7.07341
7.13729
11.721
11.1976
0.0327804
11.8536
7.17276
0.0604852
7.11965
9.68974
10.8412
6.81563
7.11995
7.05088
6.78978
8.39623
6.87578
7.08097
7.24924
6.91483
0.0218242
0.0305443
7.97936
0.0643168
0.0644039
0.00692639
7.26022
6.95572
7.11377
6.81653
7.05198
7.19406
7.14491
7.13392
7.68869
6.95127
7.18442
7.23089
7.20721
7.07554
7.07893
6.90895
6.95663
6.84034
7.15047
7.03704
7.23252
7.11755
7.18435
7.03819
6.98732
7.17394
7.04747
6.96061
6.93124
7.19184
7.03848
10.9227
7.18321
6.9263
9.77769
7.19407
7.4087
6.92704
7.01685
7.29081
0.0128249
7.13151
10.4739
7.10344
7.60473
9.77454
10.7907
7.51589
7.1761
7.46567
6.59292
7.35851
7.03555
7.12009
7.00649
7.55413
0.00376821
7.25727
7.13142
7.16048
7.14888
7.17554
12.1955
0.0396998
10.4652
0.021302
10.9573
0.0747197
0.0780833
7.11438
0.0765802
11.2635
7.26747
7.13918
7.11028
7.84416
13.1173
0.0412984
0.0720117
10.1941
7.13329
0.00525473
11.0981
10.0956
7.56358
13.0333
7.28047
10.9473
7.15441
11.9316
7.19577
7.15442
7.66662
7.04635
7.83906
7.56218
7.16382
6.94877
7.15142
9.98024
9.27082
7.22613
8.87012
7.17659
11.2588
0.0425042
9.33359
13.0483
6.94043
13.1473
0.011185
0.0688369
9.32882
9.2002
6.92004
9.21455
8.1865
7.04962
7.07055
13.1597
6.91236
6.91095
7.40578
7.08905
6.94504
7.33746
0.0764313
10.3141
7.1891
7.17462
7.41999
6.88709
7.15903
0.0066487
7.35265
13.8782
9.52906
7.26506
7.44653
7.16195
7.51956
7.51333
7.0859
6.91077
7.2514
0.0712403
7.15106
6.89793
7.07165
7.14617
7.14836
7.15476
8.17511
0.0636714
7.17916
7.13937
7.125
11.2768
6.67598
0.0134982
7.12502
7.1183
7.09199
10.3937
7.76066
7.42505
7.23938
7.10834
7.16465
6.85851
11.4929
7.19539
10.0888
0.036855
7.24074
7.14502
11.2568
7.10216
7.04488
7.23989
6.94709
6.92578
11.0704
6.94592
6.94604
7.10204
7.04783
10.019
7.75619
7.21792
7.18692
7.01501
7.81083
0.00475438
8.34954
6.98207
0.00216109
7.06836
7.67637
9.84868
9.63246
8.09063
9.59915
7.12646
6.94374
6.94387
7.00295
6.91928
6.9265
7.42816
7.42769
0.0132369
12.7658
0.0684317
0.00535871
7.17432
6.91339
7.21445
7.20549
8.74836
7.06736
8.81326
7.27011
7.21833
7.32083
9.59439
7.52307
6.94784
6.94419
12.6817
6.82919
8.32233
6.8865
7.23751
7.10353
7.61213
12.3887
7.10209
6.94359
6.94328
6.94413
10.6732
7.17894
6.94498
0.00560574
7.33306
7.26581
9.07487
7.30808
7.10916
7.20757
7.23925
7.11601
7.11772
13.8891
7.19146
10.6339
7.19695
7.11757
7.21082
7.28179
7.09603
7.20763
7.54239
11.2388
7.03839
0.0639296
0.0323078
0.0157532
0.0719379
7.0805
7.63819
8.85146
7.40143
7.11906
8.62947
6.9511
13.4275
0.0652363
7.86419
6.91907
7.22563
7.1959
10.9743
7.10508
7.27991
0.0583963
0.632798
7.30002
7.27539
9.66368
10.9876
0.00269121
7.15502
0.0727525
12.4581
13.2479
7.58871
7.60642
13.119
7.09409
7.06135
7.15439
7.04085
0.0138836
7.52251
7.2749
7.78704
7.66992
7.96847
7.5409
10.99
0.00540274