# Selection : patch(face27)
# Faces  :    106
# Area   :    1.506279e-04
# Time        	sum(Td)
0             	0.000000e+00
32            	0.000000e+00
