/*--------------------------------*- C++ -*----------------------------------*\
  =========                 |
  \\      /  F ield         | OpenFOAM: The Open Source CFD Toolbox
   \\    /   O peration     | Website:  https://openfoam.org
    \\  /    A nd           | Version:  10
     \\/     M anipulation  |
\*---------------------------------------------------------------------------*/
FoamFile
{
    format      ascii;
    class       volScalarField;
    location    "32";
    object      Cx;
}
// * * * * * * * * * * * * * * * * * * * * * * * * * * * * * * * * * * * * * //

dimensions      [0 1 0 0 0 0 0];

internalField   nonuniform List<scalar> 
143879
(
-0.179935
-0.179936
-0.179937
-0.179943
-0.179947
-0.179739
-0.179939
-0.180178
-0.179951
-0.179941
-0.179956
-0.179963
-0.179748
-0.179958
-0.179563
-0.179598
-0.179942
-0.179765
-0.180335
-0.18019
-0.180449
-0.179971
-0.179965
-0.179945
-0.180115
-0.180033
-0.179762
-0.179986
-0.179569
-0.179615
-0.179968
-0.179787
-0.179682
-0.179173
-0.179244
-0.179945
-0.179785
-0.18015
-0.180342
-0.180647
-0.180208
-0.180468
-0.180427
-0.180874
-0.180134
-0.180001
-0.179978
-0.179949
-0.180138
-0.180214
-0.18019
-0.180168
-0.180156
-0.179892
-0.179579
-0.17964
-0.180119
-0.180007
-0.179819
-0.179685
-0.179184
-0.179265
-0.179979
-0.179816
-0.179548
-0.17896
-0.179
-0.179085
-0.179949
-0.179619
-0.180288
-0.180153
-0.180352
-0.180657
-0.180934
-0.18072
-0.180495
-0.180452
-0.180891
-0.180864
-0.181228
-0.180364
-0.180129
-0.180027
-0.179993
-0.180171
-0.179953
-0.180375
-0.180046
-0.180352
-0.180312
-0.180374
-0.180341
-0.180291
-0.180141
-0.179879
-0.179812
-0.17969
-0.179633
-0.179201
-0.179722
-0.179297
-0.180196
-0.18009
-0.180093
-0.180031
-0.179858
-0.179863
-0.179549
-0.178968
-0.179017
-0.179114
-0.179992
-0.179657
-0.179722
-0.179174
-0.17851
-0.178511
-0.179281
-0.17878
-0.179953
-0.179786
-0.180274
-0.18029
-0.180546
-0.180158
-0.180671
-0.180946
-0.180726
-0.181255
-0.180991
-0.18049
-0.180915
-0.180893
-0.181248
-0.180818
-0.181241
-0.181621
-0.180327
-0.18053
-0.180282
-0.180199
-0.180192
-0.180058
-0.180219
-0.180006
-0.180415
-0.179956
-0.180193
-0.180172
-0.180616
-0.18031
-0.180496
-0.180355
-0.180464
-0.180276
-0.18019
-0.180125
-0.179799
-0.179984
-0.179551
-0.179872
-0.179458
-0.179804
-0.179242
-0.178982
-0.179044
-0.179652
-0.179308
-0.179157
-0.180273
-0.180137
-0.18017
-0.180121
-0.180056
-0.179789
-0.179841
-0.179715
-0.179715
-0.179177
-0.178521
-0.178533
-0.179317
-0.178812
-0.180007
-0.179838
-0.179927
-0.179477
-0.178954
-0.178301
-0.178244
-0.178448
-0.179024
-0.17872
-0.179957
-0.179507
-0.180088
-0.180271
-0.180515
-0.180293
-0.180549
-0.180665
-0.180964
-0.180736
-0.181267
-0.180996
-0.181597
-0.181248
-0.181052
-0.18048
-0.180936
-0.180974
-0.181278
-0.180854
-0.181266
-0.181638
-0.181182
-0.181667
-0.182048
-0.180493
-0.180821
-0.180477
-0.180397
-0.180351
-0.180387
-0.180269
-0.180085
-0.180475
-0.180018
-0.180242
-0.179959
-0.180484
-0.180299
-0.180118
-0.180795
-0.180664
-0.180256
-0.180526
-0.180716
-0.180553
-0.180652
-0.180481
-0.180484
-0.180172
-0.179887
-0.179681
-0.179938
-0.179635
-0.179705
-0.179182
-0.179829
-0.179425
-0.17952
-0.17966
-0.17907
-0.17912
-0.178537
-0.178566
-0.179491
-0.179241
-0.179221
-0.179372
-0.17886
-0.180462
-0.180344
-0.18031
-0.179944
-0.180359
-0.180248
-0.18031
-0.180267
-0.180088
-0.179992
-0.179764
-0.179742
-0.179916
-0.179916
-0.179468
-0.178953
-0.178308
-0.178262
-0.178476
-0.179067
-0.178759
-0.18002
-0.179565
-0.179924
-0.179088
-0.179452
-0.178529
-0.177842
-0.177682
-0.178152
-0.179084
-0.178388
-0.17996
-0.179675
-0.180079
-0.180187
-0.180266
-0.180511
-0.180566
-0.180553
-0.180664
-0.180895
-0.180995
-0.181283
-0.181004
-0.18161
-0.181255
-0.181053
-0.181896
-0.181459
-0.181325
-0.180675
-0.180906
-0.180908
-0.181305
-0.181248
-0.181038
-0.181665
-0.181219
-0.181695
-0.182067
-0.18103
-0.181657
-0.182083
-0.182445
-0.180691
-0.180885
-0.180867
-0.180549
-0.180572
-0.180406
-0.180251
-0.180111
-0.180317
-0.180026
-0.180537
-0.17996
-0.180254
-0.180516
-0.18028
-0.180161
-0.180843
-0.180472
-0.180628
-0.180811
-0.18079
-0.180838
-0.180684
-0.180401
-0.180796
-0.180484
-0.180013
-0.179854
-0.179769
-0.180066
-0.179734
-0.17974
-0.179492
-0.17977
-0.179899
-0.179454
-0.179252
-0.178953
-0.179685
-0.179992
-0.179211
-0.179499
-0.179607
-0.178894
-0.178924
-0.178611
-0.178318
-0.178288
-0.178634
-0.178518
-0.179424
-0.179053
-0.179259
-0.179383
-0.178995
-0.179132
-0.178817
-0.180533
-0.180229
-0.180501
-0.180012
-0.179895
-0.18021
-0.180437
-0.180439
-0.180256
-0.180115
-0.179915
-0.179568
-0.179546
-0.179804
-0.17992
-0.179652
-0.179904
-0.179082
-0.179437
-0.17853
-0.177848
-0.1777
-0.178184
-0.179135
-0.178428
-0.18003
-0.179742
-0.179921
-0.179922
-0.178907
-0.179104
-0.179712
-0.178349
-0.177688
-0.177486
-0.177373
-0.177681
-0.178721
-0.178331
-0.179961
-0.179426
-0.180065
-0.180172
-0.180046
-0.180409
-0.180504
-0.180557
-0.180792
-0.180663
-0.180893
-0.180969
-0.181238
-0.181629
-0.181267
-0.181028
-0.181055
-0.181905
-0.181464
-0.181326
-0.182324
-0.181777
-0.181404
-0.180894
-0.181045
-0.181275
-0.181272
-0.181736
-0.181402
-0.181255
-0.181617
-0.182096
-0.181074
-0.181688
-0.182107
-0.182459
-0.18144
-0.182138
-0.182553
-0.182894
-0.181041
-0.180961
-0.180574
-0.18057
-0.180419
-0.180277
-0.180127
-0.180616
-0.180032
-0.180315
-0.179961
-0.180637
-0.180599
-0.180478
-0.180196
-0.1803
-0.180796
-0.180472
-0.180687
-0.180997
-0.180843
-0.180765
-0.180813
-0.180705
-0.180404
-0.181108
-0.180484
-0.180484
-0.180484
-0.181108
-0.180087
-0.179982
-0.1797
-0.179912
-0.179962
-0.179758
-0.179627
-0.179917
-0.179437
-0.179571
-0.179874
-0.179073
-0.179413
-0.179197
-0.178984
-0.178532
-0.180032
-0.179034
-0.179373
-0.179549
-0.179497
-0.179571
-0.17887
-0.178924
-0.178533
-0.178378
-0.178374
-0.177858
-0.178209
-0.177727
-0.17836
-0.178634
-0.178619
-0.178233
-0.179442
-0.179071
-0.1792
-0.17926
-0.178927
-0.179017
-0.179147
-0.179212
-0.178904
-0.178487
-0.180342
-0.180504
-0.179963
-0.180358
-0.180517
-0.180562
-0.180397
-0.180349
-0.180486
-0.180381
-0.180135
-0.179861
-0.179938
-0.179649
-0.179551
-0.179673
-0.17973
-0.180143
-0.179843
-0.179896
-0.179897
-0.178897
-0.179089
-0.179689
-0.178346
-0.177689
-0.177497
-0.177396
-0.177711
-0.178773
-0.178375
-0.180034
-0.179493
-0.179918
-0.179918
-0.178588
-0.178951
-0.179492
-0.17797
-0.177255
-0.177005
-0.176712
-0.177544
-0.178585
-0.177954
-0.179962
-0.178869
-0.179706
-0.180055
-0.18015
-0.180023
-0.180395
-0.180179
-0.180532
-0.180544
-0.180781
-0.180776
-0.180891
-0.180962
-0.181205
-0.18137
-0.181224
-0.181598
-0.181919
-0.181471
-0.180981
-0.180986
-0.181327
-0.182333
-0.181781
-0.1814
-0.182554
-0.181902
-0.181669
-0.181056
-0.181139
-0.181287
-0.181141
-0.181736
-0.181366
-0.181723
-0.182142
-0.181389
-0.181344
-0.181242
-0.181811
-0.181571
-0.182087
-0.18248
-0.181484
-0.18217
-0.182576
-0.182907
-0.181279
-0.182072
-0.182616
-0.182967
-0.183216
-0.180863
-0.180626
-0.18085
-0.180646
-0.180488
-0.180416
-0.180313
-0.18014
-0.180408
-0.180036
-0.180696
-0.179962
-0.180227
-0.180611
-0.180488
-0.180334
-0.180214
-0.180609
-0.18086
-0.181185
-0.181077
-0.180803
-0.180972
-0.180864
-0.180248
-0.181137
-0.181365
-0.180796
-0.180439
-0.180197
-0.180504
-0.180796
-0.18054
-0.180796
-0.180439
-0.18023
-0.18153
-0.181108
-0.181108
-0.181108
-0.180091
-0.179828
-0.179965
-0.17978
-0.1798
-0.180048
-0.179536
-0.1798
-0.179472
-0.179468
-0.179957
-0.179408
-0.179678
-0.179857
-0.17986
-0.179068
-0.178883
-0.179528
-0.179066
-0.179656
-0.179064
-0.17911
-0.178755
-0.178532
-0.17834
-0.179123
-0.178943
-0.179423
-0.179386
-0.179587
-0.179461
-0.178529
-0.17887
-0.178724
-0.178312
-0.178159
-0.178153
-0.177886
-0.17769
-0.177514
-0.177784
-0.17743
-0.17836
-0.178456
-0.178279
-0.177756
-0.179454
-0.179227
-0.179095
-0.17929
-0.179383
-0.178949
-0.179212
-0.17885
-0.178659
-0.178441
-0.180247
-0.180432
-0.180739
-0.180085
-0.17989
-0.180342
-0.180467
-0.18052
-0.18086
-0.180628
-0.180459
-0.18045
-0.180717
-0.180601
-0.180402
-0.180144
-0.179884
-0.180135
-0.179617
-0.179615
-0.179737
-0.179506
-0.179788
-0.179447
-0.180165
-0.179894
-0.179593
-0.179884
-0.179883
-0.17858
-0.178933
-0.179466
-0.177966
-0.177254
-0.177014
-0.176733
-0.177579
-0.178639
-0.177996
-0.180038
-0.178929
-0.179779
-0.179916
-0.179916
-0.179916
-0.178586
-0.179096
-0.179686
-0.177958
-0.176921
-0.177187
-0.176503
-0.176306
-0.176528
-0.177046
-0.178067
-0.179962
-0.178694
-0.179478
-0.180124
-0.179988
-0.180374
-0.18015
-0.180514
-0.180057
-0.180438
-0.180519
-0.180765
-0.18076
-0.180997
-0.180951
-0.181196
-0.181244
-0.181405
-0.181333
-0.181725
-0.181887
-0.182345
-0.181788
-0.181458
-0.181142
-0.181344
-0.181394
-0.182556
-0.181901
-0.181664
-0.183001
-0.182259
-0.181784
-0.181226
-0.18126
-0.181193
-0.181457
-0.181549
-0.181727
-0.182218
-0.181487
-0.181806
-0.182126
-0.18261
-0.181528
-0.181378
-0.181307
-0.181923
-0.181735
-0.181787
-0.1822
-0.182399
-0.182927
-0.181328
-0.182109
-0.182643
-0.182985
-0.183224
-0.181689
-0.182464
-0.183197
-0.183571
-0.183612
-0.180917
-0.180905
-0.181017
-0.180618
-0.180627
-0.180469
-0.180515
-0.180352
-0.180148
-0.180784
-0.18004
-0.180297
-0.180673
-0.179963
-0.180475
-0.181191
-0.180278
-0.180223
-0.180778
-0.180938
-0.181185
-0.181077
-0.18098
-0.180898
-0.181019
-0.180253
-0.181536
-0.180766
-0.18081
-0.180565
-0.180151
-0.180197
-0.180065
-0.18056
-0.180348
-0.180674
-0.180774
-0.180388
-0.180766
-0.180566
-0.180263
-0.181623
-0.181667
-0.181654
-0.181685
-0.181135
-0.181044
-0.181496
-0.181008
-0.181479
-0.181112
-0.181135
-0.181465
-0.179938
-0.179833
-0.179877
-0.179526
-0.179772
-0.179886
-0.179578
-0.179814
-0.179713
-0.179256
-0.179578
-0.17928
-0.179439
-0.180069
-0.179185
-0.179747
-0.179834
-0.179697
-0.179832
-0.178872
-0.178814
-0.178566
-0.179375
-0.179046
-0.178907
-0.179426
-0.178977
-0.178789
-0.178708
-0.178382
-0.17796
-0.179136
-0.178984
-0.179064
-0.179185
-0.179428
-0.179551
-0.17975
-0.178529
-0.178893
-0.178755
-0.178362
-0.177825
-0.178208
-0.178109
-0.177841
-0.177755
-0.177254
-0.177619
-0.177028
-0.177625
-0.177473
-0.176764
-0.178263
-0.178375
-0.178701
-0.177922
-0.178525
-0.177632
-0.179317
-0.179017
-0.179216
-0.179374
-0.179182
-0.178937
-0.17872
-0.178626
-0.178058
-0.180337
-0.180671
-0.180012
-0.180451
-0.180722
-0.180818
-0.180914
-0.180685
-0.180339
-0.180586
-0.180735
-0.180815
-0.180991
-0.180727
-0.180616
-0.18041
-0.180152
-0.179995
-0.180154
-0.179586
-0.179579
-0.179701
-0.179497
-0.18
-0.179589
-0.179391
-0.18016
-0.180183
-0.179839
-0.179675
-0.179019
-0.179889
-0.179878
-0.179876
-0.179876
-0.178572
-0.179074
-0.179651
-0.17795
-0.176925
-0.177182
-0.176514
-0.17632
-0.176554
-0.177079
-0.178114
-0.18004
-0.178754
-0.179548
-0.179914
-0.179914
-0.179914
-0.178338
-0.178866
-0.179492
-0.177613
-0.176425
-0.176725
-0.176129
-0.175546
-0.175889
-0.177183
-0.177792
-0.179962
-0.178133
-0.179018
-0.17973
-0.179996
-0.180106
-0.18039
-0.180486
-0.18002
-0.180412
-0.180213
-0.180633
-0.180683
-0.180735
-0.180978
-0.180945
-0.180981
-0.181184
-0.18123
-0.181561
-0.181575
-0.181867
-0.181737
-0.182029
-0.182294
-0.182559
-0.181691
-0.1819
-0.181315
-0.181315
-0.181656
-0.183003
-0.182256
-0.181774
-0.183183
-0.182194
-0.1812
-0.181323
-0.181234
-0.181498
-0.181584
-0.181555
-0.181401
-0.182164
-0.181957
-0.182248
-0.182683
-0.18157
-0.18191
-0.181957
-0.182349
-0.182614
-0.183011
-0.181459
-0.181638
-0.181848
-0.182342
-0.182635
-0.182941
-0.183235
-0.181736
-0.182502
-0.183222
-0.183586
-0.183619
-0.181631
-0.18225
-0.183078
-0.183423
-0.183732
-0.183885
-0.183897
-0.180969
-0.181073
-0.180828
-0.180672
-0.180741
-0.180794
-0.180541
-0.180555
-0.180401
-0.180155
-0.180403
-0.180766
-0.180041
-0.180544
-0.181246
-0.180216
-0.179962
-0.180972
-0.181308
-0.180352
-0.180821
-0.181385
-0.181076
-0.180843
-0.181322
-0.181718
-0.180766
-0.180948
-0.18081
-0.18042
-0.180747
-0.180163
-0.17999
-0.180353
-0.180031
-0.180077
-0.18073
-0.180404
-0.180518
-0.180767
-0.18031
-0.180537
-0.180723
-0.180949
-0.180748
-0.18039
-0.180102
-0.181808
-0.181805
-0.181838
-0.181821
-0.181808
-0.181839
-0.181445
-0.181212
-0.180943
-0.181605
-0.181172
-0.181487
-0.181569
-0.181295
-0.181584
-0.181512
-0.179793
-0.179934
-0.179684
-0.179703
-0.179518
-0.179395
-0.179794
-0.179906
-0.179511
-0.179762
-0.179689
-0.179224
-0.179429
-0.179251
-0.179097
-0.179598
-0.179732
-0.179821
-0.179817
-0.179599
-0.179723
-0.179817
-0.179006
-0.17858
-0.178882
-0.178551
-0.17947
-0.17917
-0.178928
-0.17904
-0.179433
-0.1796
-0.17882
-0.178507
-0.178756
-0.17818
-0.177953
-0.177936
-0.179028
-0.178828
-0.178955
-0.179184
-0.179222
-0.179872
-0.178552
-0.178613
-0.178155
-0.177678
-0.178382
-0.1779
-0.177673
-0.177587
-0.177303
-0.17693
-0.177176
-0.177365
-0.17705
-0.176529
-0.177534
-0.17793
-0.177368
-0.177155
-0.177778
-0.176794
-0.176342
-0.176593
-0.178444
-0.178042
-0.178493
-0.178677
-0.177846
-0.1785
-0.177692
-0.177129
-0.179222
-0.179189
-0.178708
-0.179387
-0.178992
-0.178914
-0.17877
-0.178184
-0.178496
-0.178157
-0.180491
-0.180257
-0.180721
-0.180094
-0.180336
-0.180662
-0.180827
-0.180878
-0.180861
-0.180506
-0.180174
-0.180485
-0.180872
-0.180793
-0.18128
-0.181221
-0.181069
-0.18104
-0.180857
-0.180648
-0.180453
-0.180155
-0.179852
-0.179801
-0.179453
-0.179801
-0.179633
-0.179205
-0.180404
-0.179928
-0.180129
-0.179811
-0.1799
-0.179241
-0.178843
-0.179652
-0.179869
-0.179868
-0.179868
-0.178325
-0.178846
-0.17946
-0.177605
-0.176427
-0.17672
-0.176134
-0.17556
-0.175913
-0.177222
-0.177839
-0.180038
-0.178187
-0.179082
-0.179802
-0.179913
-0.179913
-0.179913
-0.179914
-0.178468
-0.179064
-0.179709
-0.177643
-0.176296
-0.176692
-0.175589
-0.175325
-0.175208
-0.175697
-0.17684
-0.179961
-0.177985
-0.178881
-0.179516
-0.18008
-0.179963
-0.180373
-0.180469
-0.180173
-0.180603
-0.180532
-0.180077
-0.180659
-0.180951
-0.18092
-0.181234
-0.181155
-0.181209
-0.181545
-0.181596
-0.18199
-0.182389
-0.182595
-0.183005
-0.182252
-0.181775
-0.181512
-0.181759
-0.18318
-0.182184
-0.182841
-0.183687
-0.182366
-0.181297
-0.181475
-0.181498
-0.181432
-0.18172
-0.181846
-0.181784
-0.18144
-0.181807
-0.182108
-0.182557
-0.182177
-0.182599
-0.183261
-0.181607
-0.182133
-0.182193
-0.181875
-0.182544
-0.182837
-0.183033
-0.18361
-0.181689
-0.181536
-0.182127
-0.182569
-0.18259
-0.183169
-0.182994
-0.183629
-0.181681
-0.182292
-0.183111
-0.183452
-0.183752
-0.183896
-0.183899
-0.18214
-0.182496
-0.183426
-0.184148
-0.184487
-0.184449
-0.184412
-0.181179
-0.181357
-0.181038
-0.180985
-0.180807
-0.181053
-0.181106
-0.18072
-0.180734
-0.180579
-0.180397
-0.180158
-0.180647
-0.181329
-0.18029
-0.180037
-0.181032
-0.181364
-0.180463
-0.179961
-0.180215
-0.181183
-0.181859
-0.180469
-0.180283
-0.180796
-0.181016
-0.181365
-0.180948
-0.181378
-0.180543
-0.180977
-0.181081
-0.181056
-0.180576
-0.180279
-0.180753
-0.180022
-0.179834
-0.180119
-0.180365
-0.180088
-0.179858
-0.179932
-0.180574
-0.181009
-0.180459
-0.1809
-0.18111
-0.180684
-0.180339
-0.18013
-0.181883
-0.182155
-0.181817
-0.18182
-0.182139
-0.182103
-0.181817
-0.182148
-0.181528
-0.181422
-0.181463
-0.181112
-0.181582
-0.181262
-0.181577
-0.181577
-0.181466
-0.181584
-0.179789
-0.179682
-0.179501
-0.179643
-0.179611
-0.179378
-0.179304
-0.179638
-0.179779
-0.179303
-0.179943
-0.179557
-0.179397
-0.17917
-0.179173
-0.17902
-0.179607
-0.179595
-0.17972
-0.179801
-0.179698
-0.179801
-0.179525
-0.179649
-0.179708
-0.179801
-0.178953
-0.179006
-0.178563
-0.178764
-0.178305
-0.179302
-0.179174
-0.179022
-0.179044
-0.178816
-0.179558
-0.179249
-0.179413
-0.178304
-0.178579
-0.177932
-0.177593
-0.17886
-0.178506
-0.178948
-0.179289
-0.179198
-0.179954
-0.178646
-0.177894
-0.178329
-0.177571
-0.17747
-0.178114
-0.177793
-0.17784
-0.177652
-0.177242
-0.177181
-0.176972
-0.17643
-0.176714
-0.177274
-0.176823
-0.176534
-0.176143
-0.17784
-0.177217
-0.177831
-0.177008
-0.177513
-0.177087
-0.177702
-0.176726
-0.176597
-0.176321
-0.17558
-0.176673
-0.175949
-0.178321
-0.178049
-0.178319
-0.178645
-0.178178
-0.178504
-0.177971
-0.177376
-0.17708
-0.177281
-0.179418
-0.17896
-0.179187
-0.179352
-0.178585
-0.179394
-0.179056
-0.179048
-0.178742
-0.178904
-0.178413
-0.178147
-0.177909
-0.178636
-0.178111
-0.180411
-0.180848
-0.180491
-0.180698
-0.181054
-0.180898
-0.180619
-0.180371
-0.18012
-0.180652
-0.18093
-0.180906
-0.181314
-0.181379
-0.181412
-0.181429
-0.181299
-0.180817
-0.180823
-0.180585
-0.180545
-0.180355
-0.180152
-0.179728
-0.179734
-0.179267
-0.179844
-0.179434
-0.179034
-0.180599
-0.180471
-0.17995
-0.18038
-0.180125
-0.17952
-0.17962
-0.180191
-0.179147
-0.179182
-0.178949
-0.178267
-0.179177
-0.179608
-0.179909
-0.179866
-0.179865
-0.179867
-0.179871
-0.178453
-0.179042
-0.179673
-0.177633
-0.176295
-0.176686
-0.175594
-0.175342
-0.175216
-0.175724
-0.176878
-0.180034
-0.178036
-0.178939
-0.179582
-0.179912
-0.179912
-0.179913
-0.179758
-0.178118
-0.178942
-0.179529
-0.177183
-0.175768
-0.176118
-0.175357
-0.174539
-0.174508
-0.176136
-0.174906
-0.177286
-0.179959
-0.178403
-0.179128
-0.179745
-0.17986
-0.180112
-0.180558
-0.180496
-0.180033
-0.18078
-0.180289
-0.180972
-0.180882
-0.181207
-0.181173
-0.181171
-0.181523
-0.181575
-0.181996
-0.182142
-0.182529
-0.182928
-0.182347
-0.183174
-0.182171
-0.18283
-0.183685
-0.182352
-0.183066
-0.18391
-0.181561
-0.181623
-0.181533
-0.181653
-0.181878
-0.181816
-0.181743
-0.181756
-0.182355
-0.182408
-0.18316
-0.182392
-0.182842
-0.183242
-0.183494
-0.183781
-0.181642
-0.182111
-0.182788
-0.182798
-0.183155
-0.183352
-0.183672
-0.183911
-0.181846
-0.181755
-0.182138
-0.18245
-0.18273
-0.182402
-0.183464
-0.183004
-0.183312
-0.183903
-0.182187
-0.182539
-0.18346
-0.184174
-0.184504
-0.184457
-0.184415
-0.182256
-0.183066
-0.184106
-0.184677
-0.18448
-0.185125
-0.185026
-0.184757
-0.1814
-0.181042
-0.18112
-0.181028
-0.180758
-0.180526
-0.180576
-0.180404
-0.180401
-0.18015
-0.181122
-0.181391
-0.181446
-0.180531
-0.180033
-0.180285
-0.181239
-0.181907
-0.180934
-0.179959
-0.180474
-0.181623
-0.181967
-0.1804
-0.181306
-0.181181
-0.181349
-0.180399
-0.181272
-0.180906
-0.181009
-0.180978
-0.181307
-0.180654
-0.180281
-0.18018
-0.180505
-0.180719
-0.179922
-0.179854
-0.179936
-0.180052
-0.180172
-0.17979
-0.18022
-0.179943
-0.179766
-0.179764
-0.180687
-0.180986
-0.18108
-0.180666
-0.180323
-0.18081
-0.181104
-0.18102
-0.180452
-0.180796
-0.180315
-0.179969
-0.18012
-0.182127
-0.182263
-0.182336
-0.182109
-0.181678
-0.182137
-0.182297
-0.182112
-0.182258
-0.181698
-0.181623
-0.181687
-0.181011
-0.181847
-0.181162
-0.181641
-0.181813
-0.181408
-0.181403
-0.179641
-0.179499
-0.179476
-0.179324
-0.179046
-0.179643
-0.180061
-0.179334
-0.179548
-0.179414
-0.179469
-0.179503
-0.179577
-0.179625
-0.179682
-0.179797
-0.179794
-0.17967
-0.179586
-0.179661
-0.179797
-0.179338
-0.179554
-0.179608
-0.179672
-0.179807
-0.178933
-0.178875
-0.178522
-0.178723
-0.178377
-0.178431
-0.179254
-0.179304
-0.17901
-0.179041
-0.178858
-0.178871
-0.179009
-0.179414
-0.179242
-0.17962
-0.178337
-0.178612
-0.1778
-0.178191
-0.177612
-0.177619
-0.178971
-0.178238
-0.178968
-0.179287
-0.179296
-0.180029
-0.178612
-0.17799
-0.178283
-0.177363
-0.177536
-0.178222
-0.177778
-0.177837
-0.177464
-0.177834
-0.177129
-0.176991
-0.176783
-0.176296
-0.176293
-0.176816
-0.176676
-0.177419
-0.176933
-0.176712
-0.176431
-0.176231
-0.176082
-0.175601
-0.177846
-0.176946
-0.177362
-0.17804
-0.177889
-0.177153
-0.176769
-0.177567
-0.177202
-0.177328
-0.177923
-0.176529
-0.176445
-0.175755
-0.175368
-0.175229
-0.176192
-0.175763
-0.17816
-0.178182
-0.178471
-0.178183
-0.178644
-0.177925
-0.177548
-0.177252
-0.177468
-0.176935
-0.179282
-0.179023
-0.178892
-0.179375
-0.179351
-0.178304
-0.179706
-0.179383
-0.178823
-0.178877
-0.178455
-0.178548
-0.177941
-0.178348
-0.181344
-0.181119
-0.180886
-0.180686
-0.180332
-0.18121
-0.181152
-0.181413
-0.181464
-0.181598
-0.181491
-0.181621
-0.181638
-0.181559
-0.181166
-0.1807
-0.181131
-0.180756
-0.180777
-0.180738
-0.180582
-0.180448
-0.180144
-0.17985
-0.179877
-0.179756
-0.179474
-0.179034
-0.179853
-0.179471
-0.179033
-0.180666
-0.180564
-0.180249
-0.179925
-0.180405
-0.179845
-0.17946
-0.179911
-0.179509
-0.179088
-0.179151
-0.17871
-0.178358
-0.178111
-0.17925
-0.179027
-0.179795
-0.180025
-0.17968
-0.179863
-0.179863
-0.179865
-0.179718
-0.178106
-0.178927
-0.179506
-0.177175
-0.175766
-0.176112
-0.175358
-0.174554
-0.174514
-0.176167
-0.174928
-0.177328
-0.180028
-0.178455
-0.179186
-0.179811
-0.179912
-0.179762
-0.179913
-0.179577
-0.179612
-0.178089
-0.179191
-0.178493
-0.177182
-0.175623
-0.176095
-0.174798
-0.174314
-0.17381
-0.174314
-0.173853
-0.175891
-0.174692
-0.177041
-0.179957
-0.178385
-0.178888
-0.179531
-0.179893
-0.180043
-0.180442
-0.179967
-0.180565
-0.180745
-0.180248
-0.180678
-0.180129
-0.181167
-0.181142
-0.181485
-0.181543
-0.181975
-0.181947
-0.182282
-0.183052
-0.182457
-0.182814
-0.183682
-0.182267
-0.182332
-0.183052
-0.183904
-0.182805
-0.183632
-0.18447
-0.181749
-0.181894
-0.182084
-0.181706
-0.182257
-0.182261
-0.182602
-0.182546
-0.183173
-0.18351
-0.182267
-0.182706
-0.183504
-0.183419
-0.184211
-0.183803
-0.18453
-0.181982
-0.182259
-0.183176
-0.182723
-0.183116
-0.183899
-0.184469
-0.182046
-0.182585
-0.18269
-0.182538
-0.183554
-0.183571
-0.183146
-0.183876
-0.18442
-0.182301
-0.183104
-0.184135
-0.184697
-0.184506
-0.185138
-0.185035
-0.184757
-0.182773
-0.183221
-0.184367
-0.18543
-0.185263
-0.185901
-0.185573
-0.185353
-0.181299
-0.181109
-0.180839
-0.180886
-0.180575
-0.180633
-0.180392
-0.180142
-0.180389
-0.181324
-0.181346
-0.181979
-0.180993
-0.180027
-0.180536
-0.181672
-0.182012
-0.181162
-0.179957
-0.180224
-0.180946
-0.181838
-0.182361
-0.181404
-0.18055
-0.181339
-0.181081
-0.180911
-0.181182
-0.18112
-0.181033
-0.181385
-0.180709
-0.180181
-0.179999
-0.180472
-0.180635
-0.180891
-0.179676
-0.179587
-0.179964
-0.179775
-0.180105
-0.179687
-0.180218
-0.180172
-0.179583
-0.181157
-0.181151
-0.180627
-0.180413
-0.181014
-0.181219
-0.180295
-0.180563
-0.180867
-0.18048
-0.179959
-0.182414
-0.182612
-0.182096
-0.181961
-0.182246
-0.182266
-0.182433
-0.182465
-0.182231
-0.181794
-0.181806
-0.181482
-0.18152
-0.182116
-0.181682
-0.181403
-0.181916
-0.181786
-0.181668
-0.181499
-0.179413
-0.179404
-0.179066
-0.180024
-0.179242
-0.179452
-0.179373
-0.179311
-0.179329
-0.179559
-0.179465
-0.179626
-0.179635
-0.17979
-0.179702
-0.17979
-0.179704
-0.17953
-0.179541
-0.179658
-0.179794
-0.179382
-0.179528
-0.179476
-0.179619
-0.179541
-0.179634
-0.179659
-0.178855
-0.179057
-0.178471
-0.178088
-0.179255
-0.179077
-0.178877
-0.179015
-0.178733
-0.178905
-0.179304
-0.179472
-0.178361
-0.178612
-0.178612
-0.177936
-0.178171
-0.17763
-0.177162
-0.178912
-0.178424
-0.178814
-0.179202
-0.179146
-0.178612
-0.177974
-0.17731
-0.177369
-0.178033
-0.1783
-0.177503
-0.177562
-0.177351
-0.177818
-0.178004
-0.177036
-0.177094
-0.176919
-0.176482
-0.176191
-0.175764
-0.176715
-0.176723
-0.176602
-0.176102
-0.177059
-0.176766
-0.176412
-0.176668
-0.176555
-0.175982
-0.175905
-0.175675
-0.17536
-0.177686
-0.177091
-0.17788
-0.178254
-0.17705
-0.176602
-0.177362
-0.176931
-0.177443
-0.177762
-0.176304
-0.175879
-0.175564
-0.175346
-0.174577
-0.17526
-0.174522
-0.175845
-0.176221
-0.175907
-0.176213
-0.174962
-0.178346
-0.178178
-0.178467
-0.178322
-0.178162
-0.177477
-0.177045
-0.177261
-0.176947
-0.177392
-0.179522
-0.179275
-0.178704
-0.178924
-0.17888
-0.1783
-0.179695
-0.17864
-0.17859
-0.178407
-0.178066
-0.181619
-0.181372
-0.181106
-0.181014
-0.180535
-0.18009
-0.180367
-0.18145
-0.181509
-0.181288
-0.181419
-0.181643
-0.181703
-0.181828
-0.18175
-0.181829
-0.181689
-0.18105
-0.181361
-0.181069
-0.181086
-0.180772
-0.180652
-0.181053
-0.180892
-0.180676
-0.180625
-0.180443
-0.180132
-0.179998
-0.179779
-0.179449
-0.179678
-0.17951
-0.179241
-0.178766
-0.18097
-0.180343
-0.180778
-0.180292
-0.180168
-0.18043
-0.17977
-0.179386
-0.180021
-0.179695
-0.178704
-0.178843
-0.17856
-0.178639
-0.178287
-0.178208
-0.178169
-0.178532
-0.179133
-0.179273
-0.179616
-0.180353
-0.179846
-0.179684
-0.179909
-0.179863
-0.179716
-0.179865
-0.179552
-0.179571
-0.178079
-0.179179
-0.178484
-0.177173
-0.175619
-0.176087
-0.174798
-0.174332
-0.17382
-0.174315
-0.17386
-0.175921
-0.174713
-0.17708
-0.180022
-0.178432
-0.178939
-0.179589
-0.179912
-0.179609
-0.179913
-0.179912
-0.179259
-0.179333
-0.177611
-0.179066
-0.178366
-0.176666
-0.175038
-0.175582
-0.174625
-0.173375
-0.172865
-0.17376
-0.173077
-0.176347
-0.175239
-0.173979
-0.177485
-0.179955
-0.178077
-0.179062
-0.179739
-0.180174
-0.179956
-0.180374
-0.180693
-0.179908
-0.180186
-0.180641
-0.180087
-0.180964
-0.180276
-0.181213
-0.181096
-0.181456
-0.181381
-0.181945
-0.181923
-0.182291
-0.182828
-0.183242
-0.182749
-0.183032
-0.18361
-0.183896
-0.182387
-0.182787
-0.183622
-0.184466
-0.183122
-0.183868
-0.184665
-0.182076
-0.181871
-0.18202
-0.181869
-0.182341
-0.182368
-0.182398
-0.182675
-0.183161
-0.18286
-0.183297
-0.183475
-0.18418
-0.182509
-0.182203
-0.18272
-0.183627
-0.183621
-0.184325
-0.184727
-0.184545
-0.184181
-0.18456
-0.185156
-0.182207
-0.182512
-0.1833
-0.183051
-0.183143
-0.184193
-0.184489
-0.185049
-0.182853
-0.182945
-0.183661
-0.183418
-0.18414
-0.183723
-0.184448
-0.184757
-0.182813
-0.183259
-0.184397
-0.185448
-0.185285
-0.185913
-0.185578
-0.185353
-0.182776
-0.183856
-0.185145
-0.186025
-0.185663
-0.186347
-0.186121
-0.185739
-0.181544
-0.181238
-0.180916
-0.180777
-0.181081
-0.180478
-0.180299
-0.180128
-0.180628
-0.181398
-0.181744
-0.181475
-0.182042
-0.182079
-0.181214
-0.180021
-0.180287
-0.181
-0.181881
-0.1824
-0.181624
-0.179955
-0.180467
-0.181139
-0.18226
-0.180425
-0.180407
-0.181362
-0.180948
-0.181087
-0.181098
-0.181223
-0.181434
-0.180952
-0.181199
-0.181698
-0.180634
-0.179899
-0.180007
-0.17981
-0.180543
-0.180255
-0.180663
-0.180735
-0.180927
-0.179652
-0.179563
-0.180212
-0.179875
-0.179802
-0.17979
-0.180172
-0.180469
-0.180218
-0.180039
-0.180172
-0.180172
-0.178924
-0.179556
-0.181142
-0.181383
-0.180241
-0.181099
-0.180206
-0.180458
-0.180628
-0.179986
-0.182604
-0.182913
-0.182452
-0.182128
-0.181982
-0.182554
-0.182592
-0.182709
-0.182302
-0.182854
-0.182032
-0.1823
-0.181652
-0.1821
-0.181638
-0.181549
-0.181561
-0.182274
-0.182017
-0.181418
-0.181937
-0.182061
-0.181642
-0.181637
-0.179225
-0.17899
-0.17923
-0.179188
-0.179442
-0.179126
-0.179236
-0.179402
-0.179253
-0.179544
-0.179471
-0.179565
-0.179683
-0.17979
-0.179697
-0.179648
-0.179675
-0.179651
-0.179607
-0.179368
-0.179471
-0.179655
-0.179794
-0.179356
-0.179516
-0.179438
-0.179531
-0.179513
-0.179511
-0.17902
-0.17897
-0.178418
-0.178045
-0.178063
-0.179029
-0.178989
-0.178771
-0.178889
-0.179161
-0.17847
-0.179198
-0.179432
-0.178238
-0.178612
-0.178189
-0.178612
-0.178612
-0.177937
-0.178303
-0.177819
-0.177376
-0.177124
-0.17716
-0.178846
-0.17888
-0.179114
-0.178612
-0.177097
-0.177923
-0.178222
-0.177324
-0.177536
-0.177244
-0.177523
-0.177922
-0.178098
-0.177305
-0.176841
-0.177023
-0.17653
-0.175795
-0.176414
-0.175613
-0.176921
-0.17651
-0.176614
-0.176171
-0.176808
-0.176075
-0.17705
-0.176367
-0.176106
-0.175523
-0.176029
-0.175493
-0.174798
-0.177675
-0.178249
-0.177051
-0.176738
-0.176165
-0.176994
-0.17742
-0.17796
-0.175806
-0.175997
-0.176238
-0.175688
-0.174751
-0.175499
-0.174359
-0.173835
-0.174932
-0.17455
-0.174317
-0.173869
-0.175874
-0.176074
-0.176615
-0.176246
-0.17549
-0.175966
-0.174977
-0.174745
-0.178222
-0.178646
-0.178233
-0.178319
-0.178159
-0.177852
-0.177301
-0.177164
-0.177664
-0.177149
-0.176584
-0.177631
-0.177137
-0.179514
-0.178955
-0.178553
-0.178912
-0.177675
-0.179844
-0.17848
-0.178368
-0.181812
-0.181263
-0.181123
-0.181119
-0.18115
-0.180712
-0.179933
-0.180596
-0.180041
-0.181748
-0.181636
-0.181565
-0.181428
-0.181719
-0.181784
-0.182073
-0.181565
-0.18211
-0.181868
-0.18188
-0.18128
-0.181209
-0.181366
-0.181403
-0.181082
-0.180819
-0.180449
-0.180949
-0.180738
-0.18112
-0.181408
-0.180965
-0.180853
-0.180853
-0.180543
-0.180623
-0.180534
-0.180382
-0.180118
-0.179772
-0.179488
-0.179718
-0.179499
-0.17928
-0.178991
-0.180989
-0.180391
-0.180785
-0.180469
-0.180216
-0.180782
-0.180076
-0.17981
-0.178943
-0.179995
-0.179517
-0.178748
-0.179022
-0.178489
-0.178137
-0.178426
-0.178616
-0.178501
-0.178938
-0.179312
-0.179372
-0.179015
-0.180174
-0.179783
-0.179948
-0.179677
-0.179864
-0.179565
-0.179867
-0.179864
-0.17924
-0.179298
-0.177603
-0.179055
-0.178356
-0.176657
-0.175033
-0.175574
-0.174622
-0.173388
-0.172872
-0.173759
-0.173079
-0.176379
-0.175263
-0.173995
-0.177524
-0.180014
-0.178119
-0.179114
-0.179796
-0.179757
-0.179313
-0.179913
-0.179912
-0.17916
-0.179186
-0.177539
-0.178689
-0.177894
-0.176604
-0.174845
-0.175082
-0.175633
-0.173975
-0.173248
-0.172654
-0.172046
-0.173173
-0.173596
-0.172217
-0.176159
-0.175092
-0.173904
-0.177229
-0.179953
-0.178334
-0.178831
-0.179545
-0.180257
-0.179778
-0.180073
-0.180586
-0.180025
-0.179731
-0.180166
-0.180022
-0.180929
-0.180235
-0.180892
-0.180591
-0.180063
-0.181413
-0.181349
-0.181705
-0.181891
-0.181887
-0.182268
-0.182151
-0.183019
-0.182773
-0.182949
-0.182759
-0.183607
-0.183768
-0.184459
-0.183103
-0.183855
-0.184658
-0.182988
-0.183619
-0.18434
-0.185344
-0.182153
-0.182071
-0.182129
-0.182423
-0.182569
-0.182873
-0.182623
-0.183086
-0.183315
-0.182984
-0.183472
-0.183895
-0.183216
-0.184294
-0.184441
-0.182445
-0.18297
-0.183999
-0.183993
-0.18471
-0.184499
-0.185476
-0.184565
-0.185318
-0.184432
-0.18481
-0.185088
-0.185929
-0.182461
-0.183314
-0.183066
-0.18323
-0.183387
-0.183204
-0.184057
-0.184411
-0.18483
-0.185129
-0.185586
-0.183097
-0.183158
-0.183544
-0.183436
-0.184268
-0.183986
-0.184577
-0.184698
-0.185354
-0.182814
-0.183889
-0.18517
-0.186039
-0.185684
-0.186355
-0.186127
-0.185736
-0.183109
-0.183746
-0.185246
-0.186735
-0.186543
-0.1871
-0.186799
-0.186638
-0.181549
-0.181248
-0.181109
-0.180826
-0.181292
-0.180652
-0.180714
-0.180473
-0.180373
-0.180116
-0.180382
-0.181081
-0.181708
-0.181946
-0.181774
-0.182255
-0.182115