/*--------------------------------*- C++ -*----------------------------------*\
  =========                 |
  \\      /  F ield         | OpenFOAM: The Open Source CFD Toolbox
   \\    /   O peration     | Website:  https://openfoam.org
    \\  /    A nd           | Version:  10
     \\/     M anipulation  |
\*---------------------------------------------------------------------------*/
FoamFile
{
    format      ascii;
    class       volScalarField;
    location    "32";
    object      Tr;
}
// * * * * * * * * * * * * * * * * * * * * * * * * * * * * * * * * * * * * * //

dimensions      [0 0 0 0 0 0 0];

internalField   nonuniform List<scalar> 
143879
(
0.885082
1.07984
0.92575
0.888328
1.08426
1.12919
1.00082
0.911375
0.924171
0.908604
0.889049
1.0817
1.12869
1.01044
1.11609
1.07156
0.854063
1.08459
0.90988
0.910731
0.913837
0.918964
0.905598
0.904637
0.93039
1.05627
1.12733
1.02605
1.11595
1.07286
0.863745
1.08011
1.1058
1.10751
1.05218
0.972515
1.04271
0.906991
0.910115
0.91421
0.909667
0.913073
0.907897
0.942335
0.905747
0.901441
0.902703
0.899003
0.900243
0.93172
1.01624
1.04946
1.05584
1.06313
1.11564
1.07175
1.03044
0.878409
1.06796
1.10562
1.10713
1.05162
0.978086
1.03706
1.1037
1.10517
1.06489
0.997672
0.880507
0.975939
0.928911
0.906905
0.91323
0.917325
0.933378
0.94559
0.91248
0.907541
0.940406
0.936534
1.01762
0.912146
0.901724
0.899811
0.896137
0.898802
0.893748
0.898228
0.895356
1.00524
1.03717
1.007
1.05358
1.05434
1.05459
1.02452
1.03989
1.1049
1.06373
1.10499
1.01572
1.04467
0.988164
1.01025
0.902983
0.988226
1.01667
1.02125
1.10331
1.10396
1.06413
0.997196
0.882078
0.975141
1.09874
1.11007
1.09429
1.03188
0.967589
0.970407
0.90687
0.934241
0.910745
0.928805
0.940836
0.906727
0.934384
0.932694
0.948729
1.01301
0.990639
0.908716
0.932889
0.937541
1.0156
0.931111
0.969043
1.03416
0.907024
0.934295
0.901812
0.899681
0.901084
0.893283
0.899053
0.892165
0.899195
0.886741
0.896081
0.989017
0.991988
1.03827
1.03161
1.02127
1.05213
1.04588
1.05322
1.0257
1.01361
1.03993
1.10209
1.0785
1.03066
1.0532
1.05372
1.09909
1.05682
1.0002
1.01715
0.990159
0.986105
1.00272
0.952777
0.991713
0.886674
1.00335
0.987011
0.96887
1.09837
1.10963
1.09043
1.02798
0.967448
0.968267
0.907614
0.930623
1.10902
1.09956
1.10838
1.09807
1.04305
0.986758
0.931561
0.934321
0.865698
0.884684
1.04628
0.912722
0.968507
0.929747
0.942129
0.981169
0.936031
0.964036
1.01295
0.990036
1.06375
1.01938
1.00419
0.906863
0.940098
0.921094
1.00904
0.933687
0.96603
1.03289
0.954779
0.978968
1.02991
0.939429
0.912212
0.902023
0.905333
0.96045
0.90159
0.894304
0.891525
0.903343
0.884839
0.896304
0.8825
0.89645
0.978331
1.08186
1.0107
0.99439
1.08749
1.00539
1.03265
0.95953
1.05371
1.04894
1.06248
0.998953
0.979936
1.0078
1.0109
1.08055
1.09682
1.1092
1.07367
1.02385
1.00011
1.03458
1.03633
1.01372
1.07566
1.01366
0.998529
0.971941
0.93982
0.961941
0.959199
0.945815
0.992121
0.99161
0.990631
0.924605
0.970966
0.948033
0.879627
0.910653
0.951194
0.940703
0.935873
0.92261
1.10761
1.09911
1.10753
1.09293
1.03795
0.984128
0.929793
0.932264
0.867136
0.883855
1.08999
1.10335
1.09938
1.11367
1.08398
1.01587
0.944679
0.891362
0.921532
0.867105
0.860302
1.05016
0.981022
0.930101
0.967943
0.982702
0.950992
0.979814
1.00112
0.970808
1.00719
0.992128
1.06265
1.01583
0.999798
1.06211
1.04458
1.03472
0.911153
0.929384
0.937165
0.96074
0.976647
0.956286
1.02913
0.953687
0.975303
1.02876
0.928662
0.964003
0.997346
1.04853
0.913208
0.987275
0.922803
0.909662
0.907467
0.897336
0.89304
0.883786
0.899693
0.8827
0.899012
0.87749
0.887887
0.967637
1.03335
1.08661
1.0088
1.10046
1.06159
1.0572
0.970563
1.0239
1.04782
1.00643
1.07063
0.997116
0.972818
0.970636
0.971824
0.988674
1.00788
1.08516
1.06186
1.09388
1.10412
1.0975
1.08023
1.1057
1.06289
1.08008
1.0368
0.994768
0.955062
1.01287
0.983462
1.0362
1.07729
1.02185
0.995329
0.973156
0.968788
0.956064
0.94255
0.931976
0.924246
0.922951
0.924461
0.975685
0.960408
0.999968
0.959782
0.966439
0.95185
0.966281
0.90184
0.907653
0.870732
0.921159
0.94355
0.922977
0.901943
0.895931
0.878926
1.08981
1.10305
1.09874
1.11155
1.07621
1.00867
0.94153
0.890335
0.919122
0.866356
0.859458
1.09655
1.09565
1.10534
1.09995
1.09854
1.11135
1.09944
1.04648
0.958943
0.935357
0.869629
0.888571
0.881562
0.842359
1.05936
0.985944
1.07593
0.987485
0.974591
0.982632
1.00642
0.979054
0.999909
1.01364
0.983634
1.05468
1.00267
1.0078
1.00204
1.05965
1.03728
1.02388
1.05904
1.05958
1.03668
0.925884
0.933113
0.950238
0.954214
0.969183
0.989682
0.996792
1.00116
1.02846
0.931288
0.957775
0.994223
1.04835
0.930164
0.96354
1.00017
1.04585
1.01761
0.947475
0.905073
0.900122
0.902661
0.888834
0.882983
0.905858
0.876799
0.888295
0.876691
0.887979
0.98531
1.0484
1.08186
1.0728
1.06098
1.07061
1.03552
1.05019
1.05773
0.984318
1.02025
1.01788
0.9626
1.07415
0.970517
0.966816
1.03217
1.00755
0.963783
0.958888
0.955982
0.962468
1.01563
1.02444
1.07446
1.08169
1.05054
1.08742
1.09037
1.103
1.09733
1.05989
1.08408
1.10374
1.06014
1.00462
0.987947
0.965387
0.956874
0.952127
0.978101
0.961866
1.01476
0.985555
1.0618
1.05837
0.98369
0.991491
0.972016
0.947042
0.939364
0.931893
0.949883
0.936537
0.945849
0.894455
0.923795
0.894626
0.891621
0.884779
0.888879
0.91086
0.948533
0.971587
0.942305
0.942426
0.9525
0.92042
0.911836
0.891654
0.900745
0.878759
0.862174
0.921754
0.90394
0.919226
0.900661
0.887279
0.869499
0.88651
0.855876
1.0918
1.0954
1.10517
1.0993
1.0982
1.10874
1.09275
1.03916
0.95398
0.931432
0.868241
0.886816
0.878661
0.841112
1.08929
1.09331
1.11125
1.10254
1.09966
1.11085
1.09409
1.03507
0.933194
0.886264
0.850669
0.872618
0.848317
0.838769
0.825951
1.06876
1.02295
1.07966
0.990861
1.01863
1.00674
1.00092
1.00545
1.0166
1.00879
1.01335
1.02674
0.978394
0.98554
1.00882
1.0528
1.01668
1.04844
1.03015
1.00952
1.05704
1.05213
1.02697
1.06527
1.0634
1.05185
0.92964
0.935801
0.941525
0.934128
0.947728
0.934779
0.953871
0.993406
1.00176
0.994972
1.03387
1.00564
0.987146
1.01855
1.04593
0.930692
0.955327
0.993783
1.04586
0.901003
0.936003
0.983475
1.02763
1.05635
0.914293
0.898769
0.905685
0.906601
0.892054
0.889916
0.88398
0.876281
0.89025
0.875005
0.889138
0.875465
0.878925
0.872191
1.0744
1.08025
1.05851
1.07655
1.03814
1.05829
1.06307
0.969311
0.994671
0.981629
0.956403
1.06091
1.05835
0.968234
0.984335
0.959813
0.945913
0.959712
0.934659
1.04731
1.01039
1.02982
1.0138
0.974071
0.974165
1.04517
0.938654
0.953326
0.95657
0.970154
1.00429
1.02498
1.00899
1.06022
1.07984
1.06696
1.06406
1.0271
1.0881
1.08792
1.09583
1.07931
1.10533
1.09184
1.09801
1.09791
1.03054
1.08023
1.06951
1.08587
1.10052
0.988192
1.00302
0.953248
0.996799
0.946126
0.944718
0.978701
0.959836
1.0094
0.989639
0.975928
1.02792
1.03275
1.07697
1.02232
0.962378
0.942156
0.930865
0.905891
0.912611
0.921258
0.929384
0.906486
0.935366
0.925849
0.883476
0.892254
0.871528
0.862594
0.881528
0.880299
0.934981
0.939734
0.961669
0.934673
0.928201
0.905992
0.929703
0.909832
0.920711
0.906208
0.900159
0.866184
0.874334
0.877239
0.86531
0.876494
0.895032
0.894868
0.910672
0.895883
0.885433
0.875706
0.855876
0.868833
0.859828
0.84969
0.837565
1.0887
1.09341
1.11116
1.10203
1.09927
1.10629
1.08711
1.02715
0.928848
0.883872
0.849378
0.870688
0.845566
0.837724
0.825945
1.09038
1.08916
1.0959
1.10897
1.10126
1.09854
1.11433
1.07323
1.10751
1.00754
0.957354
0.881427
0.866146
0.848359
0.883571
0.826855
0.821972
1.05181
1.08527
1.02251
1.02476
1.00401
1.08003
1.02292
1.06032
1.0187
1.01347
1.02915
1.02582
1.02437
1.03479
1.02129
1.04025
1.01449
1.02649
1.05182
1.03746
1.03872
1.05026
1.03569
1.02994
1.06182
1.05388
1.03991
1.06538
1.06475
1.05705
0.925068
0.932529
0.930473
0.934049
0.929426
0.94017
0.942482
0.927497
0.953679
0.999394
0.989342
1.01161
1.04459
1.06158
1.02081
1.01654
1.02549
1.01755
1.0316
1.043
0.902191
0.935896
0.974548
1.02551
1.05847
0.890877
0.921303
0.987044
1.02913
1.05236
0.919322
0.90475
0.91372
0.896862
0.893378
0.87975
0.890803
0.875918
0.873577
0.891229
0.875158
0.87506
0.870928
0.876608
0.871672
0.868993
1.06975
1.07583
1.08087
1.0771
1.00401
0.993184
0.960539
0.96042
0.978722
0.938354
1.06119
0.97126
0.945824
0.979304
0.974258
0.936598
0.954192
0.922501
0.934945
0.940465
0.934968
0.928339
1.04406
1.03037
1.02017
1.0366
0.982937
1.05548
1.00058
0.99383
0.950503
0.981098
0.942111
0.959471
1.08171
1.02676
1.07051
0.92629
0.957076
0.932918
0.958229
0.992072
1.02221
1.01164
1.06836
1.03602
1.07554
1.07842
1.07172
1.0369
1.07402
1.01923
1.08173
1.08723
1.09572
1.09421
1.06812
1.08082
1.10991
1.08122
1.08741
1.10098
1.09851
1.05348
1.04407
1.04657
1.07079
1.09437
0.999707
0.954843
1.00449
0.94329
0.995868
0.931409
0.931479
0.948792
0.940606
1.0062
0.999248
0.985519
0.982854
1.03186
1.03479
1.04736
1.07173
0.985271
1.01071
0.92265
0.905664
0.919031
0.915667
0.901686
0.887543
0.89858
0.883032
0.877312
0.889915
0.914915
0.910905
0.877616
0.880526
0.856939
0.84499
0.867795
0.86501
0.928383
0.940944
0.927525
0.89977
0.935569
0.911001
0.911696
0.894325
0.849974
0.862846
0.863454
0.869041
0.887292
0.885345
0.858817
0.87515
0.839121
0.885351
0.879631
0.888085
0.879082
0.878242
0.876774
0.849943
0.846497
0.852223
0.860734
0.846852
0.832688
0.826638
0.834423
0.824336
1.08989
1.08449
1.09554
1.10883
1.10063
1.0984
1.11165
1.06506
1.10244
1.00089
0.95223
0.878673
0.864057
0.846985
0.878604
0.825863
0.82097
1.08873
1.08615
1.09271
1.11142
1.103
1.09933
1.11306
1.06438
1.10254
1.02555
0.931118
0.862158
0.840676
0.837071
0.842719
0.826902
0.82151
0.81707
1.08164
1.0575
1.06121
1.0153
1.08125
1.01731
1.05413
1.04122
1.06149
1.0235
1.0249
1.03951
1.06868
1.03756
1.03106
1.05058
1.02639
1.04326
1.03125
1.03405
1.03808
1.0546
1.04184
1.04204
1.07432
1.07226
1.03584
1.0635
1.05915
1.04739
1.07152
1.06253
0.914312
0.927447
0.956376
0.924658
0.922558
0.934201
0.9037
0.93359
0.928944
0.929134
0.965183
0.958904
0.988505
0.94386
1.00776
0.997224
1.01843
1.0573
1.05451
1.04227
1.03691
1.032
1.03259
1.05863
0.891236
0.92338
0.983791
1.03478
1.05553
0.873034
0.895402
0.920783
0.943143
1.00645
1.03841
1.0645
0.908668
0.912758
0.901837
0.881395
0.880857
0.890315
0.872971
0.876412
0.871856
0.874173
0.871225
0.87131
0.876071
0.869871
0.868795
0.874605
0.883435
0.869144
0.861565
1.07447
1.07411
0.984048
0.960061
0.943781
0.964065
1.07291
0.95244
0.98633
0.939686
0.972858
0.997695
0.965607
0.996078
0.930687
0.918866
0.943131
0.925347
0.917598
0.932524
0.917635
0.915653
0.914341
1.07097
1.03501
1.02488
1.0469
1.01336
1.03226
1.05463
0.990089
0.989534
1.04372
1.0617
0.99782
0.944406
0.932204
0.969302
0.933745
0.935978
0.95725
1.0369
1.07325
1.08122
0.922706
0.920433
0.942305
0.916937
0.984012
0.963847
0.993832
1.01588
1.0305
1.04771
1.03182
1.07141
1.07718
1.03675
1.02973
1.07611
1.08422
1.08946
1.0795
1.09381
1.09487
1.09653
1.07134
1.07276
1.0798
1.10806
1.08064
1.07977
1.08337
1.09918
1.09551
1.09875
1.02517
1.05195
1.02923
1.0545
1.07205
1.10407
0.995575
0.963645
1.00673
0.951393
0.996999
0.925491
0.930932
1.00338
1.01882
0.97601
0.976118
0.982965
1.02532
1.03691
1.03929
1.04822
1.09073
0.962984
0.985601
0.986774
0.900599
0.916279
0.924841
0.889399
0.900118
0.895654
0.940895
0.872361
0.907568
0.899707
0.890897
0.876122
0.867095
0.859216
0.85812
0.858788
0.901413
0.916187
0.904565
0.911067
0.873849
0.848313
0.838111
0.842634
0.856289
0.854283
0.909462
0.899477
0.916798
0.899949
0.884728
0.893148
0.916614
0.904076
0.88163
0.842044
0.845762
0.851875
0.861094
0.842861
0.864339
0.887508
0.873986
0.888763
0.855992
0.857544
0.838224
0.873902
0.874363
0.884708
0.859349
0.846171
0.836677
0.837361
0.863047
0.859356
0.834665
0.829199
0.823096
0.823884
0.823259
0.818715
1.08796
1.08438
1.09308
1.11099
1.10282
1.09901
1.10947
1.05802
1.09777
1.01932
0.926993
0.859862
0.839241
0.835831
0.838955
0.825817
0.820645
0.817088
1.08719
1.0895
1.0794
1.09476
1.10817
1.10147
1.09743
1.11464
1.08748
1.11184
1.01522
0.884196
0.964848
0.837968
0.826556
0.888354
0.818667
0.818575
0.826376
1.07549
1.08211
1.02138
1.06253
1.05307
1.03678
1.05632
1.07492
1.06221
1.03224
1.0345
1.05426
1.07114
1.04178
1.04259
1.05496
1.03863
1.03528
1.06259
1.06022
1.04793
1.0681
1.07228
1.0421
1.06751
1.05576
1.06717
1.0723
1.06329
0.92554
0.914685
0.9562
0.907447
0.920488
0.920905
0.925474
0.897293
0.891478
0.926628
0.923135
0.924333
0.954847
0.971338
0.96655
1.00112
0.95977
0.953299
0.969808
1.02934
1.03307
1.03651
1.06484
0.999919
1.04671
1.04375
1.0351
1.04706
1.04445
1.05769
0.87352
0.896774
0.924735
0.948985
1.01861
1.0433
1.06684
0.868377
0.877418
0.890146
0.925471
0.990359
1.03751
1.05775
0.903963
0.911254
0.898003
0.882403
0.873765
0.883913
0.893814
0.871383
0.872429
0.869963
0.87143
0.875991
0.868462
0.869458
0.874572
0.88467
0.868584
0.861463
0.891027
0.889452
0.891932
0.881062
0.861477
1.06914
1.05911
1.07326
0.920763
0.958985
0.93138
0.922684
0.951835
0.955621
0.979585
0.931688
0.92769
0.980619
0.994033
0.979496
0.995617
0.918656
0.937617
0.915622
0.911531
0.943278
0.923912
0.917021
0.913307
1.07136
1.04835
1.03071
1.0444
1.02946
1.04853
0.979396
0.965157
0.961177
0.982898
1.05107
1.0522
1.06033
1.02411
0.987914
0.94456
0.92688
0.970913
0.922402
0.926516
0.929095
1.05261
1.07186
0.911994
0.931147
0.950569
0.92207
0.913611
0.980776
0.969926
0.992066
1.02024
1.02499
1.06658
1.0537
1.02441
1.04958
1.03472
1.01755
1.08046
1.07996
1.08834
1.08682
1.07059
1.08088
1.09075
1.0926
1.09755
1.09475
1.04236
1.0733
1.08382
1.07604
1.10791
1.07766
1.07454
1.08295
1.08903
1.10205
1.09832
1.09112
1.09897
1.04305
1.01861
1.07362
1.10051
0.983395
0.955199
0.962805
0.931838
0.986712
0.89237
0.988582
1.01388
1.02495
0.9961
0.969108
0.965098
0.997483
0.964813
1.04206
1.05733
1.0011
1.00322
1.04425
1.08666
0.932913
0.956692
0.961087
1.00597
0.896422
0.897055
0.911243
0.913649
0.91393
0.859998
0.864969
0.854117
0.889378
0.918302
0.917945
0.849479
0.854625
0.908578
0.901226
0.883745
0.894845
0.862708
0.864045
0.851487
0.845137
0.848447
0.835095
0.895075
0.888063
0.917433
0.916488
0.911346
0.901781
0.853722
0.840605
0.844782
0.830416
0.831559
0.834044
0.832046
0.848145
0.842736
0.891468
0.906763
0.880601
0.883816
0.889526
0.876238
0.847817
0.835857
0.839403
0.839605
0.847663
0.846654
0.858284
0.871478
0.877556
0.894542
0.87531
0.841358
0.869066
0.855832
0.814717
0.871803
0.830798
0.889733
0.855112
0.845701
0.838862
0.83113
0.831125
0.861235
0.851037
0.849336
0.831596
0.818032
0.829173
0.80854
0.811227
0.827595
0.813212
0.809498
0.823007
0.81858
0.809269
0.815667
1.086
1.09004
1.07309
1.0943
1.10833
1.10113
1.09697
1.11296
1.08191
1.10849
1.00972
0.880989
0.959752
0.836216
0.825231
0.873388
0.817626
0.817699
0.825219
1.0849
1.08567
1.07978
1.09402
1.11189
1.10258
1.09856
1.11293
1.07922
1.108
1.05118
0.8666
0.958371
0.82716
0.82981
0.820033
0.865691
0.820618
0.823871
0.842363
1.07304
1.06862
1.03974
1.05246
1.07306
1.06451
1.0747
1.06831
1.03635
1.04853
1.06184
1.07067
1.0466
1.04795
1.06198
1.03923
1.05679
1.06523
1.06411
1.06263
1.04592
1.06191
1.07061
1.05708
1.06622
1.07569
0.929753
0.913845
0.954491
0.904183
0.916871
0.924181
0.889436
0.874699
0.897125
0.918378
0.924825
0.906471
0.946505
0.954163
0.951692
1.02721
0.966232
0.970577
0.954789
1.04946
1.03614
1.03871
1.04057
1.04634
1.06529
1.00225
1.04255
1.05333
1.04529
1.05365
1.04967
1.05456
1.04017
1.0676
0.868529
0.877839
0.891104
0.926532
1.00593
1.04604
1.06115
0.858623
0.875317
0.882695
0.954912
0.904933
1.00599
1.02552
1.07228
0.900492
0.874071
0.875372
0.871669
0.867964
0.871196
0.871012
0.876127
0.875197
0.886619
0.867979
0.873957
0.862294
0.891604
0.890536
0.894559
0.879885
0.861826
0.895865
0.901182
0.910419
0.881047
0.869
1.06457
0.92717
0.922123
0.92697
0.952186
0.950287
0.944462
0.989572
0.898236
0.935327
0.895904
0.977348
0.964686
0.983177
1.00796
0.963024
0.985989
1.00748
0.935093
0.880793
0.91626
0.939246
0.910627
0.911458
0.938212
0.90936
0.904593
0.907884
0.896977
0.90056
1.05021
1.06278
1.05712
1.03634
1.0558
1.07072
1.04176
1.01915
1.04985
1.00893
0.968263
0.968997
0.936863
0.962113
1.01068
1.05517
1.05682
1.03106
1.04145
0.991023
0.906989
0.977277
0.90872
0.916215
0.91305
1.06877
1.07204
0.924848
0.935385
0.982459
0.967148
0.967747
1.00843
1.0612
1.03433
1.05026
1.0067
1.0755
1.08133
1.07299
1.08559
1.08449
1.0846
1.09116
1.05886
1.05933
1.07207
1.06893
1.08949
1.09211
1.0969
1.09643
1.09492
1.03601
1.0618
1.0706
1.06948
1.09134
1.10764
1.08651
1.07642
1.06638
1.08408
1.07572
1.08877
1.10073
1.0977
1.0952
1.09738
1.05113
1.01888
1.05904
1.06731
1.07609
1.10789
0.979359
0.935804
0.954273
0.921362
0.991261
0.905376
0.980199
1.01537
1.02126
0.988409
0.951028
0.970477
0.991321
0.978137
1.04736
1.0259
1.04192
0.994387
0.988533
1.00487
1.06926
1.06391
1.10024
0.935014
0.934307
0.967252
0.935043
0.958146
0.97921
0.997903
0.890389
0.898998
0.899819
0.911509
0.897137
0.902083
0.918035
0.920919
0.865098
0.8515
0.869602
0.855836
0.903466
0.903058
0.874247
0.948229
0.841034
0.831516
0.908384
0.862123
0.88871
0.858035
0.851124
0.8365
0.831392
0.829898
0.825046
0.821413
0.856562
0.8529
0.912997
0.884171
0.919914
0.909027
0.90213
0.869039
0.838797
0.833962
0.834256
0.821919
0.824349
0.837273
0.907848
0.870013
0.859014
0.840218
0.826418
0.841975
0.842957
0.8659
0.84356
0.880174
0.874676
0.878689
0.900966
0.877228
0.834191
0.819914
0.871887
0.8661
0.837598
0.815159
0.872502
0.842062
0.853113
0.854477
0.897136
0.845464
0.842895
0.83536
0.834663
0.822018
0.826936
0.850385
0.854499
0.845043
0.848703
0.819466
0.813337
0.820031
0.802259
0.802855
0.81712
0.80161
0.804501
0.80838
0.814946
0.807248
0.815195
0.803642
0.807827
0.821984
1.08264
1.08541
1.0746
1.09361
1.11121
1.1024
1.09786
1.11092
1.07432
1.10513
1.04622
0.86372
0.953892
0.825682
0.827885
0.818885
0.8627
0.819713
0.822935
0.84248
1.08254
1.08665
1.08295
1.09733
1.08955
1.10821
1.10021
1.10639
1.11077
1.10028
1.11048
1.04484
0.839661
0.881625
1.01429
0.922657
0.81321
0.813726
0.818404
0.911495
0.829108
0.83255
0.862503
1.05326
1.0601
1.05715
1.07115
1.05831
1.06236
1.07498
1.072
1.07402
1.04943
1.05837
1.06828
1.04944
1.05678
1.06659
1.05741
1.06695
1.05826
1.05428
1.06763
1.05334
1.04965
1.06209
1.0726
1.06737
1.07011
1.07561
0.906952
0.895494
0.906144
0.878138
0.869439
0.901195
0.878222
0.9075
0.922664
0.890412
0.894308
0.914078
0.990254
0.943694
0.924311
1.03503
1.01812
0.971985
0.946727
0.990686
0.943945
1.03333
1.04486
1.05347
0.99168
1.0093
1.0281
1.01621
1.04414
1.05155
1.05618
1.06437
1.06482
0.859352
0.875807
0.882565
0.971579
0.906958
1.02051
1.03556
1.07132
0.858266
0.857498
0.858066
0.930163
0.896908
0.976163
1.04456
1.06165
0.869949
0.86728
0.871703
0.87087
0.883122
0.889095
0.888931
0.890025
0.896652
0.876783
0.865128
0.862544
0.893687
0.90287
0.910926
0.879745
0.868449
0.908465
0.903029
0.911471
0.918308
0.892756
0.871857
0.909442
0.941187
0.942619
0.943078
0.961389
0.983337
0.890041
0.882846
0.918587
0.875911
0.960166
0.982689
1.00017
0.95984
1.0154
0.966951
0.974209
1.00608
1.01184
0.93086
0.884144
0.850755
0.877449
0.949339
0.888999
0.887229
0.872264
0.874988
1.05419
1.05768
1.02236
1.06338
1.05684
1.07
1.02857
1.03423
0.938263
0.92935
0.924572
0.965367
0.940201
0.988102
1.02941
1.05902
1.04321
1.00688
1.06056
0.988337
0.977101
0.957341
0.904447
0.917158
0.906495
0.907807
1.05391
0.94715
0.976332
0.96247
1.05326
1.01867
1.06763
1.02898
1.00956
1.08247
1.08067
1.05956
1.08955
1.08072
1.07971
1.09166
1.08538
1.03704
1.03724
1.07205
1.06521
1.06854
1.08996
1.09411
1.09848
1.09509
1.09929
1.09797
1.09452
1.04989
1.01943
1.08823
1.10857
1.08299
1.07043
1.08121
1.09428
1.0828
1.10279
1.09634
1.09775
1.04106
1.0417
0.999486
1.06246
1.06111
1.08391
1.10552
0.979482
0.94622
0.950415
0.932857
0.98632
0.970908
1.00689
0.982013
0.96622
0.974076
0.964256
0.986232
0.970155
1.0398
1.01302
1.04225
1.01528
0.980576
1.00122
0.999221
1.01397
1.06372
1.06225
1.0271
1.07804
1.09743
0.936447
0.934446
0.970192
0.954481
0.919179
0.924746
0.939199
0.971266
1.03568
0.892444
0.895061
0.909386
0.902594
0.883509
0.914308
0.898931
0.856391
0.856428
0.862099
0.849183
0.883788
0.911312
0.850445
0.856622
0.920475
0.943705
0.843112
0.827431
0.817489
0.821565
0.822607
0.928026
0.843279
0.855734
0.837438
0.829169
0.826581
0.816512
0.815351
0.813409
0.815924
0.849267
0.844062
0.840622
0.868206
0.921954
0.871321
0.87288
0.823764
0.82124
0.816441
0.814838
0.900867
0.889629
0.859826
0.836107
0.828693
0.825596
0.809406
0.830772
0.853851
0.844925
0.834641
0.869471
0.829907
0.876917
0.872269
0.88848
0.885099
0.81983
0.87096
0.871182
0.85416
0.85521
0.802766
0.808757
0.873585
0.875426
0.823339
0.877869
0.85663
0.869675
0.848251
0.830669
0.824378
0.813015
0.823599
0.817459
0.851368
0.846779
0.858069
0.828398
0.850358
0.803801
0.79972
0.801076
0.79821
0.80048
0.812531
0.796662
0.807217
0.798043
0.797024
0.808335
0.802038
0.817099
0.808647
0.820024
0.801822
0.807042
0.808423
0.81551
0.839274
1.08112
1.08698
1.07851
1.09622
1.09029
1.10763
1.09959
1.10562
1.10974
1.09612
1.10919
1.04038
0.837337
0.878212
1.00986
0.918188
0.811615
0.811875
0.81706
0.908316
0.828071
0.831612
0.86117
1.08189
1.0855
1.07339
1.08124
1.09882
1.0904
1.10801
1.10126
1.10579
1.10755
1.09452
1.10537
1.07475
0.828073
0.860338
1.01514
0.938445
0.82002
0.815519
0.813013
0.83257
0.902463
0.835981
0.850341
0.891628
1.05961
1.04919
1.06049
1.05994
1.05797
1.07523
1.07083
1.07141
1.07578
1.08266
1.054
1.0566
1.06621
1.07348
1.052
1.06389
1.06919
1.06357
1.06463
1.0597
1.05627
1.06799
1.06878
1.05695
1.06379
1.06589
1.07345
1.07007
1.0691
1.07363
0.929472
0.883993
0.888379
0.874966
0.868219
0.860784
0.893977
0.876588
0.875539
0.914036
0.894432
0.882666
0.881356
0.896641
0.884062
0.907603
0.962479
0.932248
0.920154
0.982096
0.905761
0.986295
0.99558
1.02669
0.918119
0.938387
0.9402
0.938246
0.997723
1.04405
1.05617
1.04515
0.997711
1.03348
1.03909
1.05173
1.05483
1.06275
1.06032
1.06763
0.859029
0.858653
0.857843
0.940511
0.899983
0.990722
1.05139
1.06494
0.864491
0.856523
0.85883
0.94447
0.87551
0.988139
1.02024
1.06232
0.871411
0.868318
0.873383
0.880526
0.88779
0.89177
0.892137
0.90484
0.907013
0.871005
0.875952
0.865589
0.863439
0.867156
0.904282
0.904727
0.913032
0.914875
0.890401
0.87121
0.906989
0.911757
0.926941
0.926743
0.888009
0.933952
0.94966
0.926235
0.933769
0.956754
1.0044
0.956742
0.870986
0.881096
0.865025
0.898299
0.856015
0.956588
0.991989
0.973222
1.00561
1.00206
0.958051
1.01581
1.04347
0.95592
0.968489
1.00915
1.00673
1.01672
0.932061
0.923328
0.851374
0.832922
0.848393
0.834383
0.87696
0.869519
0.93449
0.859866
0.897242
0.86336
1.05833
1.03818
1.0567
1.05822
1.03654
0.927454
0.946675
0.924485
0.903062
0.896046
0.953189
0.939991
0.980494
0.99844
1.02927
1.05156
1.03
1.06177
1.02327
1.01234
1.05823
0.964214
0.959855
0.950145
0.882094
0.87872
0.910645
0.896475
0.890045
0.976866
0.973085
1.05437
1.02958
1.01624
1.00006
1.08062
1.08147
1.04777
1.09266
1.0874
1.07789
1.07577
1.07962
1.08562
1.08811
1.03546
1.01951
1.04717
1.02041
1.06796
1.06181
1.07211
1.09313
1.09655
1.10076
1.09868
1.09602
1.09236
1.06382
1.00319
1.08004
1.08754
1.10658
1.07867
1.09338
1.08034
1.10119
1.10001
1.10503
1.09579
1.09876
1.04534
1.05118
0.992876
1.02708
0.976386
1.07169
1.07359
1.07541
1.06958
1.08453
1.10688
0.967727
0.933513
0.926631
0.963038
0.952391
0.966174
0.957582
0.987709
0.962034
1.0542
1.015
1.01706
1.04801
1.00296
0.958892
0.984116
0.991679
1.00713
1.00693
1.08626
1.05768
1.04602
1.03472
1.07229
1.07077
1.10443
0.913928
0.952895
0.911275
0.942303
0.941919
0.995004
1.03111
0.892989
0.858647
0.860309
0.894846
0.917318
0.843992
0.838573
0.842765
0.864612
0.843384
0.834314
0.901212
0.839635
0.851662
0.831281
0.870126
0.91141
0.910474
1.0004
0.908217
0.826502
0.813856
0.81579
0.814087
0.809003
0.807638
0.81666
0.807252
0.939365
0.924227
0.828052
0.82633
0.818819
0.816974
0.812261
0.810366
0.808579
0.802552
0.808319
0.799399
0.813609
0.838567
0.838556
0.825718
0.925913
0.859745
0.858984
0.814266
0.811417
0.882979
0.85375
0.854116
0.824599
0.8443
0.818963
0.814052
0.806554
0.801272
0.840791
0.813052
0.853668
0.820779
0.843731
0.851652
0.821548
0.812167
0.878612
0.852091
0.878633
0.81605
0.813528
0.868131
0.843606
0.865855
0.824841
0.798927
0.799029
0.808044
0.799979
0.814485
0.874451
0.858234
0.881467
0.810826
0.851186
0.888604
0.846854
0.905762
0.839833
0.820088
0.818475
0.801261
0.815369
0.812666
0.857479
0.834787
0.846659
0.814354
0.83711
0.801652
0.79675
0.79221
0.796356
0.791999
0.797062
0.797784
0.797091
0.799416
0.797775
0.801182
0.812702
0.824775
0.806176
0.806589
0.813143
0.828363
0.808203
0.815126
0.832195
0.856646
1.08103
1.08564
1.06712
1.07938
1.09765
1.09135
1.1064
1.10067
1.10257
1.10612
1.09086
1.10421
1.07044
0.825855
0.857466
1.01116
0.934506
0.81834
0.813631
0.810858
0.830812
0.902348
0.834651
0.849487
0.890755
1.0832
1.0872
1.07104
1.0773
1.09374
1.08994
1.09663
1.10403
1.09726
1.09265
1.10743
1.10889
1.08887
1.07114
0.813325
0.839113
0.881461
0.989748
1.04868
0.916065
0.835531
0.824983
0.821685
0.850446
0.911374
0.860153
0.868791
0.910499
1.05421
1.03546
1.05161
1.07272
1.05158
1.03742
1.05933
1.06834
1.07505
1.07868
1.07993
1.08164
1.06584
1.06214
1.0729
1.07582
1.06222
1.05975
1.06768
1.07127
1.05746
1.04567
1.0502
1.05839
1.05947
1.06876
1.06992
1.0677
1.06638
1.07106
1.06836
1.06935
1.06959
1.07121
0.88595
0.879415
0.86987
0.86245
0.870208
0.859772
0.882366
0.872207
0.85988
0.889205
0.896612
0.879134
0.87205
0.881024
0.859552
0.882945
0.885072
0.941116
0.926794
0.972958
0.901851
0.945163
0.899861
0.89906
0.972174
0.982736
1.00397
0.998184
0.915631
0.930152
0.91031
0.899925
1.00428
0.954054
1.03732
1.01563
1.04568
1.04688
1.05588
1.00878
1.0202
1.01957
1.03227
1.0474
1.04934
1.05482
1.05241
1.06579
0.864201
0.856984
0.853804
0.954299
0.873255
1.00513
1.03832
1.06686
0.868271
0.860593
0.860908
0.907334
0.873309
0.968499
1.01957
1.03999
0.866856
0.871916
0.880887
0.87976
0.894874
0.901339
0.886756
0.89858
0.905623
0.90684
0.913299
0.905823
0.869148
0.883859
0.86428
0.862343
0.865225
0.868938
0.901686
0.912851
0.92647
0.923014
0.886035
0.91514
0.914799
0.925397
0.932932
0.930261
0.894023
0.925403
0.943886
0.92137
0.915355
0.937405
0.955097
1.00822
0.997126
0.9602
0.85363
0.85568
0.849219
0.884327
0.841649
0.900423
0.945691
0.984986
1.00944
0.99422
0.949155
0.981236
1.00782
1.05022
1.05247
0.942822
0.96736
1.01064
1.00554
0.924152
0.94396
0.921308
0.839344
0.850831
0.825003
0.824186
0.831484
0.832384
0.822586
0.824816
0.905155
0.877704
0.886229
0.863051
0.915817
0.828006
0.874863
0.86265
0.932231
0.869444
1.05877
1.06063
0.918884
0.910651
0.950594
0.898869
0.899218
0.958879
0.948715
0.932674
0.912797
0.996013
0.995563
1.0044
1.0335
1.04414
1.01539
1.02117
1.05802
1.05508
0.969332
0.968729
0.934133
0.961057
0.870546
0.854396
0.882674
0.877067
0.863918
1.02349
1.01082
1.00347
1.08912
1.07795
1.0805
1.0582
1.0914
1.08563
1.07767
1.06635
1.08062
1.0886
1.08158
1.08558
1.01688
1.02564
1.01738
1.06663
1.06087
1.06434
1.06273
1.07644
1.09328
1.09451
1.10264
1.09822
1.09275
1.06258
1.01882
1.08666
1.07926
1.08907
1.09567
1.10438
1.07491
1.09843
1.08765
1.07503
1.09874
1.10212
1.10128
1.09837
1.09754
1.09077
1.10093
1.05039
1.07
1.00625
0.980691
1.02165
1.03648
1.04375
1.00587
0.972806
0.965469
0.986695
1.07815
1.06631
1.06856
1.06921
1.08132
1.08962
1.10215
0.961315
0.934341
0.930225
0.939517
0.955217
0.963453
0.967781
0.973247
0.956899
1.04341
1.0165
1.03183
1.00601
0.961108
0.963191
1.00112
1.00133
1.05108
1.08194
1.04334
1.04662
1.03103
1.02304
1.02797
1.0579
1.0843
1.07549
1.09885
0.928392
0.954799
0.937976
0.979601
0.996885
1.06132
0.930063
0.854866
0.885981
0.892716
0.828889
0.83013
0.833263
0.85971
0.824004
0.842612
0.884804
0.829504
0.842369
0.848788
0.817668
0.8197
0.854665
0.850189
0.927075
0.891835
0.920247
0.891737
0.98055
1.0024
0.885662
0.925096
0.82408
0.817118
0.806585
0.8088
0.808767
0.79386
0.79105
0.800438
0.814256
0.809157
0.795103
0.79509
0.805455
0.931981
0.928317
0.820478
0.807445
0.815243
0.808307
0.805157
0.789512
0.79301
0.791303
0.798912
0.804863
0.826365
0.825236
0.82737
0.818974
0.830376
0.805359
0.800434
0.853681
0.817378
0.819828
0.831513
0.811173
0.803856
0.796916
0.798597
0.796511
0.825849
0.813102
0.802598
0.842406
0.808927
0.819132
0.834708
0.855408
0.855761
0.813495
0.827222
0.811302
0.873699
0.845714
0.802405
0.812726
0.860417
0.817398
0.794541
0.794317
0.803681
0.808081
0.799989
0.801076
0.808929
0.872453
0.848893
0.844384
0.881447
0.819583
0.857536
0.890921
0.834287
0.87192
0.905947
0.896379
0.796798
0.806866
0.811968
0.845673
0.819472
0.795684
0.79361
0.792413
0.791864
0.792334
0.787994
0.793675
0.799678
0.792768
0.791199
0.797358
0.801678
0.822077
0.830629
0.805977
0.819076
0.84529
0.811297
0.798485
0.814187
0.836168
0.830773
0.85038
0.885489
1.08271
1.08763
1.06586
1.07354
1.09394
1.09081
1.09281
1.1029
1.09324
1.08935
1.10466
1.1079
1.08576
1.06736
0.811259
0.836703
0.87808
0.985338
1.04447
0.911714
0.83328
0.822691
0.819422
0.847761
0.914232
0.858346
0.867516
0.909049
1.08264
1.0873
1.06545
1.07841
1.09532
1.09274
1.09087
1.10254
1.09383
1.08649
1.10272
1.10316
1.08375
1.09477
0.811492
0.833554
0.871874
1.01006
1.04654
0.950487
0.852129
0.840165
0.833057
0.832074
0.871686
0.941551
0.876656
0.89705
0.952347
1.04857
1.01084
1.02266
1.06812
1.07218
1.02686
1.02118
1.04473
1.0573
1.06931
1.07917
1.07996
1.06371
1.08027
1.08415
1.06619
1.0705
1.07649
1.07713
1.06523
1.07035
1.07085
1.04669
1.04406
1.04913
1.04762
1.06317
1.05051
1.06199
1.04835
1.05053
1.05595
1.06672
1.06661
1.06804
1.0667
1.0704
1.06802
1.06724
1.06667
1.06955
0.878219
0.8824
0.870969
0.865825
0.860867
0.863443
0.860045
0.862744
0.873452
0.864498
0.859793
0.857164
0.896063
0.884295
0.862721
0.861559
0.871336
0.862343
0.849708
0.872977
0.917757
0.924604
0.87744
0.919674
0.956104
0.877278
0.886119
0.8706
0.934158
0.95411
1.0213
1.00466
0.994819
1.01846
0.909239
0.918419
0.908121
0.884261
0.962409
1.03264
1.0109
0.964133
1.0402
1.05355
1.05209
0.990316
1.01318
1.02415
1.02658
1.03574
1.04963
1.05662
1.06727
0.867887
0.860875
0.853726
0.915679
0.87389
0.988555
1.03742
1.05118
0.884862
0.867204
0.882968
0.867649
0.926861
0.863207
0.991555
1.0599
0.879012
0.884559
0.890923
0.890285
0.90325
0.906557
0.91475
0.921468