# Region type : patch solid:1:24
# Faces  :    106
# Area   :    9.347373e-05
# Time        	sum(Tr)
0             	0.000000e+00
27            	2.564510e-03
