/*--------------------------------*- C++ -*----------------------------------*\
| =========                 |                                                 |
| \\      /  F ield         | OpenFOAM: The Open Source CFD Toolbox           |
|  \\    /   O peration     | Version:  2112                                  |
|   \\  /    A nd           | Website:  www.openfoam.com                      |
|    \\/     M anipulation  |                                                 |
\*---------------------------------------------------------------------------*/
FoamFile
{
    version     2.0;
    format      ascii;
    arch        "LSB;label=32;scalar=64";
    class       volScalarField;
    location    "1000";
    object      p;
}
// * * * * * * * * * * * * * * * * * * * * * * * * * * * * * * * * * * * * * //

dimensions      [1 -1 -2 0 0 0 0];

internalField   nonuniform List<scalar> 
111443
(
6611.16612097
6616.03222733
6602.90989744
6644.05161121
6619.79615318
6645.93505339
6591.89706545
6595.51080601
6586.54806559
6625.66562499
6691.52421449
6610.56765463
6677.4009685
6639.10851323
6562.84436503
6581.75695821
6585.14624664
6580.52151238
6573.70174961
6578.9030405
6625.89083098
6642.57356097
6740.19586082
6572.68221702
6597.56520364
6722.85278408
6546.53531376
6661.91179083
6616.3009879
6556.19952637
6568.14288101
6541.70819936
6573.42368098
6589.66515696
6563.87380125
6561.11039974
6573.52086579
6555.42224326
6576.67387884
6556.46738834
6602.06155721
6658.80245495
6643.17585787
6791.1884899
6546.63060921
6567.37312434
6578.4056159
6584.4474466
6770.47794705
6528.51000202
6678.13638674
6568.13865939
6655.52159817
6598.81903162
6628.99740098
6529.5560345
6487.8446105
6504.83691756
6527.16122959
6547.3943384
6574.78295588
6589.02557611
6591.14506482
6555.42713255
6546.21513253
6560.37434977
6540.3166918
6558.96208605
6573.95657003
6544.79331067
6563.04549636
6590.78321549
6707.7734392
6580.11567378
6576.66465999
6637.34548898
6839.8717484
6515.23212452
6576.66894305
6581.5230689
6565.09709762
6479.54100847
6570.27034856
6814.99466853
6513.65903266
6687.98186853
6608.29161751
6699.00226239
6393.61607306
6466.15883568
6617.46943275
6570.91869876
6583.91192553
6506.81300473
6512.13356664
6457.86932193
6512.988402
6522.48752833
6508.12782836
6545.04176194
6531.37497039
6549.86764943
6558.1831986
6589.65117315
6591.53076036
6566.18321922
6531.96112717
6555.15729792
6536.6054498
6542.86569474
6560.7879544
6547.63448744
6576.72678686
6568.30046262
6542.80382588
6562.32733414
6550.25079817
6609.7118485
6761.50058209
6560.70926522
6547.75453345
6660.29323716
6614.80343377
6629.02916493
6878.592189
6496.63206106
6586.50483697
6584.82520456
6569.30551009
6463.4577034
6585.67299174
6525.86368916
6504.8799172
6556.33553127
6848.24498065
6504.63523511
6691.75384097
6654.7292705
6753.02872849
6323.99409466
6411.44931276
6617.85135939
6438.38070889
6545.63201497
6587.91458925
6638.83709025
6508.99015807
6521.18594859
6492.92523221
6455.8365734
6485.08945878
6527.37804496
6521.81821445
6494.7835289
6527.3644658
6535.2472892
6536.89570687
6547.35394853
6572.98394691
6587.83107776
6541.92522512
6531.66254901
6551.92844151
6534.21289825
6527.53509311
6536.19108152
6554.5940341
6542.89695747
6574.52766639
6551.00297293
6571.22163055
6539.0911595
6535.80881448
6552.15821476
6544.7485467
6613.77787948
6813.92043892
6537.92319063
6514.21582391
6706.4930301
6631.97522267
6645.02676707
6568.99252435
6618.58864852
6898.01021965
6491.27932081
6594.96318861
6591.92678117
6571.64812195
6440.65135497
6592.13851522
6537.09492384
6539.12185934
6574.8442554
6490.72262801
6391.27109016
6863.6918402
6501.60676619
6691.49495509
6696.14692065
6806.29987314
6242.8320806
6349.89881059
6611.1074288
6431.24617911
6577.81411746
6696.28259635
6455.81322157
6441.52649704
6479.84133626
6434.72588661
6591.93881215
6473.89859227
6517.91644439
6495.00142564
6513.74606967
6454.17768073
6515.7499954
6474.80739861
6486.13894015
6508.44481979
6513.57161545
6475.93186805
6510.94877447
6545.2463534
6526.72874449
6549.27265655
6570.13619648
6532.85333509
6575.16857788
6542.97327663
6520.70508267
6552.66447695
6536.62011464
6520.97648347
6517.19593575
6537.15647256
6553.91090101
6550.00219082
6545.82831347
6576.19888789
6565.70300003
6536.5806523
6546.95828101
6565.58382339
6530.31554808
6544.02400316
6555.66197421
6627.66794816
6854.54957821
6516.84135735
6488.70552737
6753.86840733
6650.87188811
6651.43138732
6550.59325063
6676.41555991
6558.27191983
6607.38499066
6489.76599035
6600.03839489
6597.88185325
6573.2688346
6422.56723338
6592.99223604
6550.04196657
6570.00718449
6606.59353559
6497.09336994
6337.88674934
6535.48513975
6425.72624952
6490.00448469
6408.63777193
6450.04481808
6504.62269361
6507.18840327
6500.66119024
6688.46105364
6723.05985356
6847.33636473
6187.31838899
6303.87451566
6602.45763008
6425.46071019
6608.43021734
6765.78221478
6439.81761175
6442.79086192
6421.18601022
6399.39304984
6437.28175662
6463.94775001
6491.39816495
6481.156227
6584.94531394
6514.44640817
6513.33773866
6602.51586822
6537.37500863
6506.54521253
6503.39514162
6519.03403436
6478.60255108
6493.11799021
6516.09010614
6495.79144083
6483.90415868
6492.29519645
6492.46272482
6526.12439012
6532.01608263
6533.18913909
6524.96441402
6550.48257033
6550.31906226
6530.07276178
6544.64120752
6537.42055215
6496.31355299
6506.69327516
6522.98544787
6553.67451815
6530.54275956
6539.00480357
6520.15732271
6498.80539576
6501.9737272
6560.74552395
6546.66130297
6556.22548651
6538.72892424
6554.22811087
6582.02509245
6554.02169236
6569.55883137
6546.03074063
6533.69704173
6563.38557643
6546.50752623
6561.59014209
6620.25609791
6874.23799279
6493.22144301
6476.15536944
6799.42763555
6666.35547305
6650.89600313
6522.32781674
6725.19530402
6573.17432538
6513.47487996
6639.83253
6601.50549209
6599.98628782
6574.28276997
6414.89064822
6592.14696988
6557.8812035
6588.33977533
6642.03800403
6506.24233499
6279.94051469
6526.30809277
6388.92896994
6372.04371999
6532.80042936
6543.82044268
6547.31508859
6468.78738379
6504.70246151
6475.23977673
6456.89036706
6475.95076427
6475.19528448
6479.44445341
6475.25911694
6490.9529602
6484.6296984
6733.46551834
6868.19238426
6166.19215744
6280.47385294
6591.68841454
6419.05595149
6630.98679061
6834.78606697
6412.99508011
6450.58971193
6340.98384535
6357.27410717
6403.73809808
6499.46626905
6474.92887576
6636.96193823
6545.47743199
6659.51089428
6477.89731605
6474.47622576
6499.33578787
6511.89954309
6481.60403228
6510.66397499
6478.65167987
6452.30861407
6499.06074545
6481.29158117
6548.76623697
6627.14521045
6501.77502777
6502.54340972
6518.1094756
6520.49516878
6500.99172997
6493.52624478
6514.3771451
6497.24918508
6495.93570197
6489.47748148
6485.52795554
6513.01688058
6522.52493154
6546.8138609
6529.52153394
6536.4838525
6516.08622035
6555.83773479
6524.49136544
6542.66387355
6529.48527868
6523.15844476
6511.37884216
6522.90978515
6559.04089463
6536.16647534
6541.18507404
6530.20764855
6522.10442248
6520.16225108
6501.82599952
6499.52845636
6494.72712009
6484.95194477
6559.13842298
6549.4045892
6562.68963264
6539.09265528
6550.78796032
6586.63351954
6526.64201416
6572.75790686
6541.17442996
6537.27553844
6530.08154797
6555.42151338
6472.83779552
6472.00196398
6834.58004679
6675.69470759
6645.89538251
6499.99650409
6775.63815155
6589.13805621
6472.61135749
6645.46836073
6539.91037143
6637.01673185
6574.45776656
6412.55528555
6592.0535757
6561.06659504
6597.40516563
6669.18858242
6514.26088437
6237.76611814
6511.94675298
6353.03931837
6330.98408093
6556.76993431
6576.92253347
6571.18405975
6526.31545078
6495.45502707
6482.44838068
6465.93687929
6483.08855837
6553.31090526
6485.30875308
6482.02298513
6458.7180087
6417.21300664
6486.19607142
6469.76561166
6459.78419954
6491.2667034
6491.1270083
6493.64790461
6490.5085639
6497.15951012
6517.87858342
6490.97495919
6495.14884066
6532.41609521
6160.32915942
6272.38478896
6580.94291462
6416.31315571
6644.72421019
6887.84644983
6386.05603108
6451.44439154
6275.46518438
6319.49128558
6376.45299012
6507.82631256
6472.63527575
6692.50817618
6582.32657601
6722.14269933
6499.59233816
6516.22409315
6525.24201844
6442.74835666
6400.23193738
6448.5779615
6640.22011236
6487.24193987
6501.83711752
6490.42063884
6515.87699929
6505.55939094
6547.21236715
6484.76521127
6493.63277533
6498.96584352
6561.22010553
6483.41270363
6564.72859145
6495.71174423
6494.23650721
6545.66999097
6551.96083563
6595.26931895
6638.61235475
6512.52766324
6493.16510901
6497.06643596
6504.63929756
6517.25478968
6509.87836444
6520.2183396
6520.36166383
6502.68010887
6504.19383964
6487.62322616
6509.5827306
6500.56238527
6543.81370694
6547.65641077
6541.23383815
6530.14661396
6536.76319626
6521.68316384
6561.03553847
6527.35383045
6519.09465305
6520.39428441
6521.16564246
6508.17883942
6514.64169343
6561.76785094
6541.0892326
6537.9719676
6525.0048965
6538.40134885
6507.60313192
6526.32727962
6529.46773809
6519.39849393
6511.04267838
6520.07912876
6499.52785377
6501.91898581
6486.58244879
6500.09841458
6492.58978181
6482.76447787
6481.60390425
6484.18879111
6475.22813526
6571.61712825
6556.68318252
6563.70912702
6562.85661541
6546.99377396
6484.74014217
6524.85625021
6592.59707646
6571.61164465
6525.46121387
6536.92461398
6851.65968618
6678.63562247
6637.88200645
6489.97560083
6825.58134582
6599.44726293
6416.95971959
6644.09920409
6560.23267336
6701.1332935
6522.569291
6591.8373437
6562.03975261
6601.12058064
6683.10778198
6518.01654939
6220.58184495
6498.49040498
6329.65964041
6299.74350669
6567.29625434
6593.13294456
6602.9362025
6545.00800331
6510.70858488
6474.62365951
6448.59769488
6440.08994216
6561.13742377
6430.73326887
6382.6193818
6496.61114244
6533.93769715
6493.25152902
6558.08850784
6513.47790266
6526.0942619
6567.9461991
6481.40525407
6453.45090883
6469.27153314
6512.75336833
6407.02063487
6484.95668116
6472.40808004
6483.80375217
6467.81276696
6488.85776328
6497.89566327
6484.73039706
6507.04869839
6482.23623993
6487.83469341
6497.41391853
6516.16418267
6517.96862256
6415.72335825
6650.2711785
6914.33187926
6374.49274035
6449.59599986
6243.98229665
6301.06885051
6348.11008435
6508.34919589
6466.63882238
6734.86364783
6604.82227875
6780.90582709
6507.09434249
6518.41865151
6546.55439227
6410.80150496
6344.11634035
6417.90103847
6644.95746094
6516.46361535
6571.40072492
6489.78041502
6597.18628079
6610.70936524
6581.3124896
6685.08088021
6497.68455704
6497.48806409
6482.52282951
6499.7405232
6518.90970249
6508.61797151
6509.42868303
6516.08256344
6495.17394842
6499.83495584
6497.07073382
6509.92967753
6444.39123857
6440.94856542
6517.61419663
6531.8856923
6498.98282116
6512.34502966
6515.20129711
6491.17493005
6615.56431334
6642.32179355
6489.36609544
6488.90272575
6494.11989347
6505.46464551
6499.26626348
6508.68335533
6522.93596378
6507.5830033
6507.64773393
6513.59567392
6522.92750226
6519.52150129
6511.53719087
6519.42885083
6533.42318954
6507.3538883
6503.61483922
6488.6963484
6506.11063393
6497.44139532
6489.42660162
6475.65738539
6492.15792601
6512.91252448
6510.56894537
6545.48744438
6563.67212945
6552.83158937
6523.90378148
6511.52026702
6561.890822
6525.98539777
6522.73562408
6531.96637106
6518.27203425
6527.3906139
6522.60845578
6531.23564024
6510.50705006
6507.8184659
6508.5959197
6516.90844442
6491.58095115
6497.60762238
6498.10483092
6494.06189847
6502.55978274
6484.87177743
6486.93516474
6475.33773313
6492.92514725
6486.87875844
6482.57552858
6471.94326425
6485.56778897
6480.25773586
6472.69108868
6477.05624049
6464.83798829
6567.5935966
6557.84041779
6580.55810382
6438.93754916
6521.40728002
6524.13195912
6624.21028288
6557.18483528
6530.27161424
6629.51377443
6486.67785025
6866.57462114
6604.77749276
6368.3215581
6638.69616494
6584.43183377
6769.91911693
6493.73142775
6665.37373702
6688.33536486
6519.33006768
6215.6948901
6491.7999524
6320.7007188
6286.31379859
6570.69637604
6598.96569705
6619.77720712
6556.81003422
6514.84348721
6466.53215143
6434.25101745
6391.03625661
6583.29689204
6408.51241972
6353.90087646
6504.26688183
6548.655839
6496.46807613
6581.81869588
6538.09312775
6574.21316205
6548.98829178
6388.87811414
6462.92355551
6519.35693661
6496.00946809
6519.65727341
6519.18190378
6505.90333762
6538.78245799
6573.82485526
6484.0629973
6451.29641892
6474.39439131
6480.69813916
6415.32681885
6442.44915883
6425.24507455
6451.41246413
6487.06426556
6466.50043241
6479.72125476
6470.83893816
6470.51732647
6459.60843545
6482.81939543
6486.07411501
6495.89494119
6470.64025781
6480.13287364
6475.70466914
6475.46188619
6474.19836873
6493.83577939
6490.72279179
6503.38859242
6507.32485703
6371.31651345
6448.85628585
6234.1081257
6295.68017728
6323.2688896
6506.75042337
6462.35610441
6761.3816051
6613.8393077
6824.58644082
6512.14153426
6513.75439692
6560.59764864
6389.96831077
6298.42375738
6393.46394141
6645.09527529
6513.85978182
6597.18586188
6479.38024493
6646.22095394
6665.6967196
6619.92119685
6740.65559788
6534.40639014
6516.53280466
6525.94218008
6384.76048058
6386.7599332
6461.06488097
6467.27253867
6652.06662876
6492.96125824
6498.82713363
6481.86398093
6501.67865571
6498.11890218
6501.3104482
6512.01265754
6501.44920064
6495.52498481
6497.47459997
6461.39237138
6507.48256677
6559.19889561
6546.45372524
6511.70721102
6509.15453472
6569.16159722
6508.03619785
6504.06431877
6495.11580991
6527.43528786
6610.21660949
6658.56147916
6485.11417285
6493.71830181
6504.69861941
6504.36754099
6511.64426804
6512.03946311
6510.60513368
6510.22729496
6522.49498239
6515.38570213
6512.01501807
6514.6129796
6530.0362902
6540.9874269
6502.11516928
6509.4707492
6496.48547862
6506.9104222
6492.22346083
6488.48957723
6475.07242003
6503.02494369
6507.93891816
6500.1755064
6492.6179498
6481.28856615
6490.82571761
6473.62844349
6478.21859999
6462.81180066
6509.62727276
6564.95083768
6564.88999242
6529.80868015
6489.78028684
6572.82395618
6566.64300315
6532.1398123
6525.7601924
6531.50429336
6516.68946316
6529.58419671
6526.33501095
6519.99259046
6523.58113527
6510.07209412
6505.04770595
6505.53440926
6519.26187813
6485.70471438
6497.59414987
6489.88747602
6497.03236836
6478.30609738
6483.13111159
6486.9774856
6479.91841144
6486.29052586
6474.50356459
6475.26053493
6464.65155558
6477.84965402
6473.04340537
6480.5631764
6482.96200144
6472.67257406
6469.90296425
6468.49022715
6480.82266441
6471.78936519
6473.96366807
6468.72495995
6465.08290088
6453.96262185
6591.73213579
6562.77261464
6544.29547387
6579.24663485
6393.61547839
6523.03464194
6518.35885186
6628.5307892
6503.44346544
6888.61083172
6606.48999575
6344.20555855
6630.08132734
6600.28019624
6832.71644786
6464.61644677
6725.89885781
6658.60588844
6467.53274788
6489.59289937
6318.18163443
6282.13643935
6572.42329275
6601.58892811
6624.11186325
6562.38752301
6514.89163954
6461.95041952
6427.75267684
6343.35058391
6603.05828513
6394.79866785
6336.82361271
6506.22896585
6555.92827519
6496.6481498
6594.8389031
6561.55644483
6579.13959031
6582.06310225
6362.04430278
6461.53845439
6534.85392777
6505.06724498
6522.08923966
6500.09996047
6609.44108075
6378.84249882
6401.03209122
6465.15006693
6505.62227423
6453.83048657
6464.90085998
6470.76470821
6473.70545935
6526.45730083
6531.48601339
6466.62590547
6471.1346468
6462.75759981
6469.42888621
6440.37999088
6507.65027562
6514.45858647
6444.28117514
6463.73116652
6455.12118647
6464.34078095
6474.29515501
6468.24943676
6464.69308388
6463.52306689
6461.54099072
6486.78848025
6487.54314734
6475.10907582
6469.51463116
6458.62221477
6484.36837972
6475.86122331
6472.82868321
6444.80526104
6482.10386943
6486.22921404
6506.33442855
6461.00763445
6771.68576002
6617.25021746
6844.22470644
6513.03436979
6510.32580566
6564.89117579
6382.32635415
6277.48220478
6381.31646158
6642.58483137
6509.93803888
6613.40937602
6473.1180057
6690.00887715
6699.93474948
6644.91002355
6793.34743004
6549.22211024
6513.33660245
6541.45591571
6326.4837838
6313.85477182
6416.12458555
6439.93123595
6654.29079057
6469.10615245
6532.41457486
6444.60529199
6596.61856317
6584.88959259
6607.54221357
6554.25268862
6718.36030616
6490.473747
6487.59656154
6492.39136351
6493.16085126
6431.66261852
6489.69577935
6484.77500414
6470.88061914
6492.71911861
6547.99429378
6511.69344206
6428.37950036
6520.01528046
6513.83959751
6532.14845098
6488.29463174
6500.06909418
6502.12062335
6452.86952725
6598.01231208
6535.9154791
6483.63776641
6489.03925406
6496.56000912
6498.59093497
6510.90694771
6508.59940054
6515.28985029
6506.99970187
6554.31490161
6514.34335899
6535.86507308
6517.14470599
6510.46465389
6514.40342473
6541.55294192
6532.54501712
6544.78807738
6535.18792563
6502.34382113
6507.23418323
6493.34787974
6496.68093789
6500.84655795
6484.61141527
6492.68787019
6481.87735658
6490.20714574
6475.6940841
6475.28555618
6460.89083091
6509.88393417
6511.87727183
6508.32453127
6486.72111937
6488.72522089
6489.83561044
6473.62076779
6464.41977375
6472.67852799
6471.53520259
6477.22233579
6460.71561808
6462.46212546
6452.73552223
6564.66404723
6569.02360291
6482.4112337
6540.55181649
6529.12808864
6516.29305959
6532.71106905
6522.58573895
6518.38564138
6529.77643893
6537.64244678
6512.72058611
6502.56873972
6500.41807661
6505.80189215
6502.81300573
6518.95322196
6484.06959286
6469.03596231
6487.84195986
6491.02187474
6498.71756753
6478.69078843
6480.2328172
6479.01337191
6479.08014012
6481.87168358
6479.83239453
6471.06308389
6473.53556145
6476.49680562
6475.23708365
6469.40949843
6466.13180152
6465.05419928
6453.33459199
6468.713242
6465.83618393
6476.86833382
6470.94869072
6466.3821076
6466.31978046
6466.68535724
6463.83427159
6458.91108372
6466.90316199
6457.04161698
6453.79437587
6446.58785103
6620.52784555
6602.53046584
6612.18207511
6498.02524237
6560.49313822
6599.18557846
6362.9368746
6522.39875381
6521.38855472
6336.86921658
6621.8142098
6609.70132413
6879.3645032
6440.14371136
6793.06815113
6669.80109851
6414.15175646
6641.19677412
6514.27949232
6625.19080115
6564.90585018
6514.85650683
6460.41599327
6425.91972352
6319.07777513
6609.64861078
6387.86961789
6329.90918155
6505.65954997
6558.3179853
6496.00102512
6599.84556795
6573.92453497
6578.40432468
6603.7831107
6343.14985307
6459.35047555
6544.00453406
6509.77908806
6525.57832496
6489.44564245
6653.84476647
6340.34342988
6355.41388586
6479.60875163
6511.93241449
6451.8640444
6460.96758586
6457.47717995
6477.72601181
6528.1648888
6548.73951999
6549.7958571
6444.24930866
6479.11316498
6458.35789519
6460.94871736
6505.14814076
6434.1914786
6545.98540423
6454.26963004
6472.54926045
6481.44419226
6463.54262446
6422.32776087
6448.08660077
6428.57665968
6466.28069876
6464.80089553
6475.43980681
6485.36831963
6471.12368086
6478.58483292
6465.63503684
6464.272415
6461.57993056
6466.44888736
6472.59297661
6474.77005032
6459.83819828
6452.74652218
6457.09856028
6453.69480276
6468.86666885
6458.24689428
6448.70727434
6458.29270258
6476.89319433
6513.17253859
6509.40573923
6566.02803505
6380.42976664
6271.78456825
6378.00335293
6638.23438595
6507.75365849
6619.14650074
6470.2858306
6717.81877104
6714.92615595
6655.06805448
6831.98635603
6559.06884802
6509.71063649
6550.57209743
6279.96526363
6253.20863248
6380.08957744
6420.70066202
6651.9954436
6453.60589533
6552.25700397
6426.52167776
6642.46812831
6626.27785799
6650.2393066
6582.0040173
6783.57918794
6512.15436526
6401.68346478
6515.10213455
6469.44850215
6375.53170997
6497.77439918
6458.86939228
6424.20821682
6508.39657417
6484.77916277
6479.80242922
6479.43273883
6438.10056261
6469.0064947
6456.7443141
6470.2864274
6487.83468512
6472.19864932
6472.91619788
6402.16342613
6599.04130749
6478.98273542
6496.60186494
6524.72665598
6560.04096507
6496.33432791
6542.56886943
6487.66660347
6469.56196566
6494.58440564
6629.45270231
6505.39277846
6511.23122273
6529.7139274
6514.14783784
6568.61699483
6515.80104488
6543.49661812
6519.2842613
6511.31820029
6512.76774484
6540.51434121
6551.15754786
6534.15910639
6536.40716109
6553.32746238
6560.82951018
6532.28407262
6516.1662229
6514.17709939
6505.16562663
6490.36591872
6493.91598568
6501.9053625
6482.54248509
6484.60174671
6492.0070206
6477.33448751
6484.56826867
6472.3070778
6468.44932373
6468.53254099
6469.36212893
6459.16471268
6461.53476041
6452.22342858
6520.11702812
6505.04530396
6490.10900739
6475.25601733
6468.10582385
6463.79720299
6465.05747303
6470.65955139
6468.5343363
6470.21335638
6457.32375807
6452.6851421
6459.15483706
6455.18609596
6463.06881866
6448.45793703
6450.10654481
6446.14683351
6621.24427743
6568.09703051
6535.63608864
6525.0007727
6512.37744202
6515.42237405
6518.62313232
6517.58042599
6547.32300047
6504.39381643
6517.76910564
6492.88073622
6498.98517581
6525.8937699
6485.10256581
6485.31806854
6493.74654097
6496.0130218
6486.32236115
6463.22120712
6477.34752504
6481.7426748
6480.90248513
6481.41185935
6471.26190755
6471.67453409
6475.19617842
6478.5823884
6476.27925191
6468.65464833
6471.96982905
6459.83490237
6463.66869959
6459.10210522
6463.82902056
6466.24483713
6454.36678051
6452.47167363
6444.56765457
6468.26307186
6460.15857524
6459.43952274
6456.64541201
6459.47534788
6452.58971831
6455.44854954
6460.16761167
6448.19326745
6450.98425478
6453.32033377
6447.27318164
6446.16106666
6443.24976377
6652.030739
6603.46279526
6643.80451296
6437.56319348
6599.69575765
6350.48638877
6521.71488248
6520.91903894
6613.72853048
6901.54338276
6414.32153936
6857.1058456
6673.03434424
6343.84505344
6688.93007786
6533.06655949
6312.8383293
6611.24240753
6385.37459063
6327.7867563
6505.38252317
6559.17483843
6495.84031077
6601.64593358
6575.97711053
6575.53920691
6613.42538402
6336.27350667
6457.66701127
6547.06631649
6511.15440423
6527.24037798
6478.32516495
6689.4498932
6314.67232465
6327.58082898
6485.6589319
6509.40392443
6449.99626591
6458.41921926
6448.69802845
6480.53496777
6525.62099186
6590.07157729
6583.19771904
6436.91962113
6478.86509697
6456.81516251
6464.42341815
6525.11366955
6425.12660118
6566.97574922
6377.20493604
6419.96243728
6397.24637707
6490.01183251
6494.82176197
6492.35275458
6467.88643682
6446.93927496
6457.3742522
6465.04012005
6465.83689096
6520.68485308
6513.7878953
6494.28319647
6474.71555071
6468.25019701
6467.23111673
6436.22199004
6452.76078394
6470.52100949
6470.55704122
6456.20200432
6462.6910311
6455.63189059
6453.38885295
6469.07795789
6460.50073215
6460.11097593
6452.57480438
6452.87836799
6456.25380592
6472.25757195
6380.76837157
6456.93471662
6448.04099846
6425.80699504
6507.03987526
6621.056252
6469.2348573
6728.47060768
6720.57957379
6658.82273777
6851.70884196
6562.57484073
6508.05178423
6553.79462962
6254.13144119
6226.69698343
6363.44525011
6412.63065731
6646.01870565
6444.35251444
6566.27863641
6414.32551053
6678.60809706
6647.33331882
6676.69380481
6599.29377168
6846.44031565
6531.29890635
6368.03094226
6541.70111244
6421.74036837
6317.28916117
6468.83833487
6425.69093327
6396.90993773
6479.99453099
6417.02188845
6491.23598957
6356.49935215
6626.10221468
6505.37075793
6580.0527087
6573.65431907
6528.38135717
6674.61499642
6467.16742
6451.2583238
6477.46367769
6454.97469254
6416.5551446
6457.04631976
6436.4866011
6475.48988491
6553.1848883
6561.62366794
6498.13659042
6520.6573586
6496.95155983
6540.71861142
6506.06265582
6462.45744731
6486.08220452
6475.40238878
6375.86696026
6605.57612268
6516.54093365
6512.02083496
6499.42914615
6518.15854431
6506.78158688
6524.79302129
6501.96398436
6534.95457354
6518.33075859
6537.07517767
6538.86259002
6562.38032851
6578.91796872
6513.71732148
6528.27994467
6515.66932769
6513.53132959
6507.62105185
6479.30502406
6493.35871536
6486.7627243
6501.08651907
6482.26453656
6475.83479807
6483.42290456
6488.95757477
6475.09814194
6455.9013807
6454.4161815
6467.1878343
6460.96540992
6450.97421233
6456.36942843
6457.80013517
6459.21987571
6449.1630506
6451.34171997
6445.79990909
6524.09684207
6463.66837466
6454.3609794
6459.04887465
6459.00981381
6451.1094795
6452.46282993
6453.13287761
6447.54174084
6451.35908587
6452.78809881
6448.06116197
6443.90740914
6445.37163256
6446.4281788
6447.8117757
6444.73312167
6444.07165449
6443.33917081
6655.52382191
6545.183784
6517.68950791
6507.39974506
6511.52609117
6495.09989652
6522.70568423
6553.27364985
6498.99997881
6498.02468008
6482.81286558
6498.88630515
6468.51916329
6537.00124283
6491.09933459
6489.78265574
6494.39869026
6484.15657471
6449.03087112
6480.3918928
6471.45467077
6473.18058293
6478.41130054
6477.91849213
6479.38185967
6484.30148981
6478.38716703
6479.86480956
6470.46209825
6482.06070515
6457.74649645
6457.26474036
6464.52669161
6459.47136252
6459.04867084
6468.22913996
6448.93937648
6449.93318698
6451.51715229
6445.64406712
6446.58691185
6446.24987439
6444.44372007
6440.12056857
6463.62025148
6453.41102361
6449.80394056
6450.0280285
6445.59437789
6449.53974322
6446.05621861
6450.1614124
6444.74971369
6446.01035472
6450.16357705
6443.30859278
6442.61728161
6449.37759707
6441.98415291
6444.20461477
6443.80999741
6666.04921489
6613.69456135
6684.71325557
6382.8970655
6346.68053251
6522.65210079
6515.14017757
6392.3476288
6905.0015972
6671.47610024
6288.72224604
6739.72381142
6555.745291
6576.15437675
6574.22780647
6617.28114514
6334.19351313
6457.13531084
6548.08143477
6511.49003014
6527.64944853
6473.64959702
6706.00139078
6304.56683299
6318.18061688
6486.92068858
6507.4665238
6448.72827689
6456.81327506
6445.26565286
6481.23047875
6520.26143199
6612.72483774
6605.05479626
6429.78344435
6474.16115009
6455.13126186
6466.73776749
6536.54795465
6419.35320887
6591.19564884
6333.10245784
6389.94331192
6368.60671359
6507.23783976
6506.99537063
6505.92630632
6468.9660736
6435.87738843
6463.87648746
6469.9927331
6550.62088219
6538.12206112
6512.4343827
6418.30420797
6444.17235505
6447.55984463
6475.43575649
6495.79582106
6347.92589138
6417.85330959
6481.26129085
6434.95110556
6468.07058299
6459.05827855
6449.65376253
6466.865577
6470.9746944
6456.8835021
6472.63962958
6466.89437986
6464.25152549
6454.05645903
6455.15514855
6455.08798895
6440.98292571
6435.92173754
6455.27790655
6359.44363046
6418.92430983
6449.23938468
6441.78623524
6450.47941836
6440.42754804
6433.04506201
6444.51435902
6563.65504738
6507.60397239
6554.89816764
6245.28461975
6219.68052426
6358.63456601
6410.32675825
6639.55060367
6440.92635742
6572.30436795
6409.29707168
6699.45126577
6653.72021856
6686.83150555
6605.86747163
6893.48556463
6543.22723486
6346.39026071
6559.10931646
6386.89934554
6272.07772457
6439.26089453
6402.68207887
6378.81487377
6455.32701414
6392.64602385
6509.88174306
6316.76099518
6654.45945201
6521.24909044
6606.03648298
6604.49192629
6559.74023202
6726.7512709
6508.39946633
6391.66950749
6512.70831185
6555.6928339
6533.44162385
6507.12424771
6487.9400406
6538.46911714
6439.18628083
6328.53663232
6600.3621283
6456.3971809
6461.29033692
6453.54391328
6396.78354462
6442.04015056
6464.94523728
6451.80069876
6446.0039151
6455.5724447
6408.5803259
6548.33753834
6513.0001119
6562.2344983
6473.1631755
6475.40083878
6422.4708449
6470.87336914
6511.66536669
6510.73096466
6515.779206
6539.438244
6499.41839777
6489.6986852
6540.18722421
6486.20288463
6535.09775109
6541.84356642
6513.66033024
6561.48181785
6599.04368077
6492.65755753
6519.35625427
6502.99512068
6477.73035994
6483.55990684
6478.53047367
6494.12553764
6482.93379135
6470.37573562
6477.63564008
6475.12558423
6453.69743133
6442.72898851
6439.03889294
6436.51070936
6469.08921335
6454.42156444
6452.27707624
6458.81167517
6447.80911836
6455.88236798
6459.214633
6453.79186226
6445.26035197
6446.91897673
6451.42947554
6443.02620901
6442.3012261
6441.20325455
6441.84843683
6449.47656871
6450.53246472
6449.61021605
6444.78226962
6445.46235285
6449.40963567
6452.70226229
6443.78536002
6444.28102878
6442.1541956
6442.91589625
6442.46474189
6444.35094992
6441.32666992
6441.33566644
6441.84347215
6439.53533278
6442.06752311
6441.25946362
6445.54426569
6703.61017233
6557.1040381
6507.30283059
6521.27887986
6507.78818009
6477.95275604
6533.52931962
6552.27674956
6497.48737979
6473.05561125
6478.60878158
6485.27667353
6502.65363808
6450.18737947
6514.97052186
6543.91221049
6485.98086441
6506.96325965
6495.17026883
6418.37756454
6489.51219492
6468.45721292
6478.95434408
6465.9017284
6474.17362808
6467.00025049
6500.45644226
6480.40441425
6490.54357686
6463.107321
6452.23741003
6452.55310522
6462.11980204
6463.68655942
6455.57803268
6463.69218756
6441.18493953
6440.16743842
6446.45455937
6446.16556064
6435.82259731
6442.52208274
6443.77468642
6442.20484248
6437.80567928
6444.11113575
6436.89956206
6436.00795746
6443.43992379
6455.76806456
6452.16337552
6452.34651045
6438.70563448
6446.91490551
6441.13790874
6447.50671423
6441.46128706
6450.2998038
6438.92704937
6445.28177584
6441.17257613
6439.56747673
6444.13932071
6441.48426601
6443.73567777
6444.11249767
6441.99076498
6441.87064445
6446.94425789
6674.40669309
6609.53783124
6727.64610551
6327.71261006
6523.25402573
6512.07224447
6928.8531357
6666.83638725
6263.96989079
6788.48645586
6569.8660032
6472.32003127
6711.6718582
6301.73657988
6315.82643628
6487.53639796
6507.02008654
6448.28825718
6456.23429674
6444.1290324
6481.39586809
6517.81773638
6621.12197537
6615.28508151
6425.58032359
6471.48039131
6454.10531555
6467.32112927
6540.83949655
6416.64504849
6607.65954133
6302.97299276
6369.82711392
6349.89090803
6515.83751047
6513.32033072
6511.9250447
6468.99719913
6429.15382005
6467.86124122
6471.12644397
6583.40069722
6560.50660008
6532.82812029
6404.01104195
6438.84637256
6443.1618313
6479.50054248
6519.09296793
6320.93215728
6412.1210964
6470.06778612
6412.10821658
6478.01722869
6494.99009164
6481.88081877
6464.84468742
6460.09943116
6317.20453947
6467.56611893
6466.22614803
6446.53938372
6466.05535442
6456.50937166
6452.86365342
6428.64064854
6392.6918661
6456.59058265
6461.29514396
6447.11475986
6459.6150921
6478.84994996
6446.88880152
6450.91332862
6410.3143151
6423.56223753
6405.42188255
6473.22836186
6434.58027634
6431.7899567
6436.20780008
6415.13242115
6442.78067249
6442.77381575
6467.32889597
6439.83561508
6574.4227275
6407.6906857
6707.37093916