/*--------------------------------*- C++ -*----------------------------------*\
  =========                 |
  \\      /  F ield         | OpenFOAM: The Open Source CFD Toolbox
   \\    /   O peration     | Website:  https://openfoam.org
    \\  /    A nd           | Version:  8
     \\/     M anipulation  |
\*---------------------------------------------------------------------------*/
FoamFile
{
    version     2.0;
    format      ascii;
    class       volScalarField;
    location    "270";
    object      p;
}
// * * * * * * * * * * * * * * * * * * * * * * * * * * * * * * * * * * * * * //

dimensions      [0 2 -2 0 0 0 0];

internalField   nonuniform List<scalar> 
70210
(
0.0198469
0.0197839
0.0197715
0.0198344
0.019764
0.019897
0.0198233
0.0198618
0.0196733
0.019874
0.0198373
0.0198468
0.0197484
0.0197458
0.0198614
0.0197952
0.0198354
0.0197123
0.0196915
0.0197862
0.019842
0.0196618
0.0199171
0.01984
0.0198465
0.0198409
0.0196798
0.0196712
0.0198128
0.019764
0.0197825
0.0198632
0.0198206
0.0198836
0.0198386
0.0197068
0.0197206
0.0197098
0.0197306
0.0197595
0.0198273
0.019798
0.0199051
0.0198168
0.0196441
0.0198974
0.019851
0.0198479
0.0196747
0.019812
0.0197804
0.019719
0.0196442
0.0196807
0.0196799
0.0197183
0.0197954
0.0197659
0.0198258
0.019867
0.019829
0.0198594
0.0198882
0.019703
0.01973
0.0197138
0.0197205
0.0197033
0.0197002
0.0197951
0.0196868
0.0196435
0.0197448
0.0199219
0.0198798
0.0198209
0.01974
0.0198345
0.019895
0.0197643
0.0198111
0.0198509
0.0196689
0.019825
0.0197817
0.0197236
0.019793
0.0197058
0.0197297
0.0197204
0.0197922
0.0198247
0.0197494
0.0197115
0.0197613
0.0197696
0.0198812
0.0197036
0.0197287
0.0197841
0.0198314
0.0198604
0.0198199
0.0198009
0.0197314
0.0197137
0.0197162
0.0197012
0.0197233
0.0197232
0.019694
0.0197189
0.0197223
0.0196654
0.0197428
0.0197246
0.0199505
0.0198093
0.0197177
0.0198727
0.0196882
0.0198113
0.0195741
0.0197184
0.019753
0.0198944
0.019761
0.0197875
0.0198299
0.0197828
0.0197244
0.0197845
0.0196963
0.0197204
0.0197823
0.0197129
0.0197367
0.0197541
0.0197098
0.0197377
0.0196833
0.0198115
0.0197166
0.0197132
0.0197072
0.0197667
0.0197182
0.0197369
0.0198437
0.0198371
0.0198522
0.0197423
0.0198637
0.0198259
0.0198391
0.0198391
0.019714
0.0197
0.019726
0.0197196
0.0197187
0.0197098
0.0197153
0.0196966
0.0196409
0.019754
0.0196896
0.0196773
0.0197697
0.0197299
0.0197088
0.0197941
0.0197106
0.0198492
0.0198121
0.0197583
0.0197458
0.019717
0.0197162
0.0196641
0.0197335
0.0198804
0.0198744
0.0197715
0.0197635
0.0198448
0.0197828
0.0196912
0.0197185
0.0197809
0.01972
0.0197356
0.0197084
0.0197205
0.0198248
0.0196958
0.0197193
0.0197106
0.019634
0.0197329
0.0197234
0.0196444
0.0197917
0.0196888
0.0197057
0.0197536
0.0197147
0.0197698
0.0197144
0.0197487
0.0197315
0.0198147
0.0198642
0.0198054
0.0196522
0.0197336
0.0198272
0.0198495
0.0198525
0.0197243
0.0197195
0.019721
0.0197047
0.0196921
0.0196903
0.0197307
0.0197197
0.0196992
0.019638
0.0197225
0.0197036
0.0197295
0.0196116
0.0197064
0.0196701
0.0197144
0.0196673
0.0197629
0.0197413
0.0198235
0.0198937
0.0197623
0.0198175
0.0197653
0.0197538
0.0198016
0.0197137
0.0198455
0.0196809
0.0196758
0.0198056
0.0197488
0.0198964
0.0198068
0.019738
0.0199032
0.0196943
0.0198935
0.0197794
0.0197215
0.0197368
0.0197091
0.0197096
0.0198334
0.0196897
0.0197079
0.0197287
0.0197196
0.0198109
0.0197144
0.0196988
0.0197298
0.0195921
0.019739
0.0197227
0.0196543
0.0197237
0.0196642
0.0197014
0.0197284
0.0197567
0.0196566
0.0197149
0.0197126
0.0197543
0.0197126
0.0197334
0.0198822
0.0197735
0.0198157
0.0198266
0.0196898
0.019859
0.0198537
0.0198498
0.0197036
0.019692
0.0196902
0.0197188
0.0197058
0.0197076
0.0196754
0.0197443
0.0196839
0.0197265
0.0196873
0.0197007
0.0196687
0.019717
0.0197325
0.0196871
0.0196689
0.0196694
0.0196391
0.0196739
0.0196804
0.0196586
0.0196949
0.0196331
0.0197949
0.0197912
0.0196967
0.0196832
0.0197451
0.0198344
0.0196894
0.0197458
0.0197269
0.0197606
0.0197124
0.019664
0.0198252
0.0197745
0.0198208
0.0198435
0.0198595
0.0197714
0.0198325
0.0197289
0.0197643
0.0197474
0.0197661
0.019869
0.0197075
0.0198377
0.0196876
0.0197073
0.0197324
0.0197237
0.0198177
0.019705
0.0197286
0.0196544
0.0197153
0.0197074
0.0197613
0.0198475
0.0196967
0.0196692
0.0196694
0.0196683
0.01978
0.0196628
0.0196311
0.0196532
0.0196805
0.0198534
0.019733
0.0197574
0.0197352
0.0197547
0.0198484
0.0196472
0.0197099
0.0196746
0.0197565
0.0197085
0.019727
0.0197356
0.0197438
0.0196326
0.0197881
0.0197564
0.0198565
0.0198537
0.0198278
0.0197198
0.0197069
0.0197087
0.0196754
0.0196832
0.019698
0.0196698
0.0196773
0.0196745
0.0197447
0.0195983
0.0197084
0.0197284
0.0196732
0.019701
0.0196854
0.0196703
0.0197131
0.0196472
0.0196359
0.0197911
0.0196819
0.0196701
0.019668
0.0196507
0.019637
0.0197006
0.0196854
0.0197122
0.0196903
0.0196673
0.0197272
0.0198308
0.0196414
0.0198803
0.0197478
0.0197474
0.0197726
0.0197138
0.0197181
0.0196999
0.0196889
0.0198009
0.0196564
0.0196225
0.0197537
0.0197635
0.0197973
0.0197384
0.0196405
0.0198999
0.0197448
0.0198483
0.0197996
0.0197511
0.0197096
0.0197026
0.0196731
0.0197639
0.0198347
0.0197258
0.0198184
0.0197069
0.0197316
0.0196512
0.019709
0.0197
0.0197632
0.0198497
0.0196637
0.0196708
0.0196843
0.0197541
0.0197447
0.0197155
0.0197534
0.0198244
0.0196341
0.0198282
0.019684
0.0196988
0.0196976
0.0196831
0.0196213
0.0196415
0.0196972
0.0197715
0.0197565
0.0197075
0.0197048
0.0197861
0.019747
0.0197407
0.0196579
0.0196469
0.0197033
0.0197251
0.0197461
0.0197422
0.0197424
0.0197091
0.0197074
0.0198603
0.0198338
0.0198455
0.0196815
0.0196978
0.0196688
0.019677
0.0196732
0.0196847
0.0197081
0.0196645
0.0197113
0.0196672
0.01968
0.0196924
0.0196735
0.0196383
0.0198346
0.0196191
0.0196942
0.0196635
0.0196608
0.0196332
0.019734
0.0197241
0.0196782
0.0197034
0.0196523
0.0197047
0.01964
0.0196571
0.0196938
0.0196672
0.0196958
0.0196686
0.0196886
0.0197024
0.019702
0.019634
0.0196527
0.0196672
0.0196685
0.0196702
0.0197004
0.0197916
0.0197713
0.0198171
0.0197242
0.0197295
0.0197525
0.0196941
0.0197642
0.0196864
0.0197711
0.0197065
0.019824
0.0197086
0.019735
0.0197842
0.0197915
0.0197193
0.019872
0.0198595
0.0196144
0.0197051
0.0198849
0.019789
0.0197956
0.019904
0.0198245
0.0197247
0.0197285
0.0197067
0.0197215
0.0197023
0.0198638
0.0197065
0.0196983
0.019763
0.0198538
0.0196623
0.0196697
0.019685
0.0197567
0.0197208
0.0197497
0.0198325
0.0197021
0.0196882
0.0196875
0.0196735
0.0197124
0.0196989
0.0196861
0.0197492
0.019844
0.0197387
0.0195783
0.0196697
0.0196616
0.0196565
0.0196923
0.0197001
0.0196537
0.0197376
0.0197144
0.0197467
0.0196367
0.0198133
0.0196364
0.0196889
0.0196136
0.0197212
0.0196709
0.0195771
0.0196921
0.0198037
0.0197479
0.0197431
0.0197308
0.0197092
0.0197327
0.0197269
0.019729
0.0198372
0.0198479
0.0196863
0.0197106
0.0196635
0.0197117
0.0196671
0.0196788
0.0196938
0.0196749
0.0196593
0.0196594
0.0196841
0.0197117
0.0196742
0.019703
0.0196677
0.0196635
0.0196728
0.0196236
0.0195933
0.0196897
0.0196658
0.0196671
0.0196635
0.0195958
0.0196261
0.0198117
0.019665
0.0196666
0.0196642
0.0196491
0.0196961
0.0196154
0.0195829
0.0196546
0.0196261
0.0196555
0.019686
0.0196895
0.0196531
0.0197299
0.0197434
0.019704
0.0196967
0.0196727
0.0195576
0.0195929
0.0196892
0.0196538
0.0196549
0.0197027
0.0196586
0.0196975
0.019741
0.0197469
0.0197134
0.0197349
0.0197768
0.0197554
0.0197166
0.0197063
0.0198686
0.0198001
0.0197661
0.0196173
0.0197268
0.0196292
0.0198256
0.0197314
0.019754
0.0198507
0.0198466
0.0198014
0.0198479
0.0198619
0.0198343
0.0197383
0.0198692
0.0198351
0.0197404
0.0197243
0.0197021
0.0197247
0.0197098
0.0197323
0.0197594
0.0197227
0.0197472
0.0198337
0.0197025
0.0196896
0.0196859
0.01967
0.0197008
0.0196817
0.0197586
0.0198462
0.019684
0.0196893
0.0197143
0.0197072
0.0197152
0.0197437
0.0196972
0.0196887
0.0197289
0.019668
0.0197212
0.0196328
0.0196019
0.0197165
0.0196924
0.0197508
0.0196934
0.0196751
0.0197569
0.0197515
0.0196468
0.0198681
0.0197583
0.0196251
0.0195197
0.0199057
0.0198642
0.0195809
0.0196962
0.0197272
0.0197079
0.0197327
0.0197351
0.0197323
0.0197131
0.01985
0.0196574
0.0196573
0.0196868
0.0197137
0.0196755
0.0197047
0.0196676
0.0196626
0.0196703
0.0196691
0.0196562
0.019644
0.0196936
0.0196482
0.019671
0.0196528
0.0196615
0.019675
0.0197522
0.0196624
0.0196332
0.0196412
0.0196778
0.019644
0.0196462
0.0195668
0.019686
0.0196968
0.0197298
0.0196502
0.0197179
0.0196793
0.0196881
0.0196235
0.019693
0.0196542
0.0196902
0.0197158
0.0197659
0.0195676
0.019697
0.0196474
0.0197194
0.0196934
0.019663
0.0196998
0.0197332
0.019739
0.0197278
0.0196901
0.0196858
0.0196283
0.0196438
0.0198519
0.019588
0.0196561
0.0196366
0.0196228
0.0196582
0.0196292
0.0196348
0.0197404
0.0197404
0.0197728
0.0197343
0.0197032
0.0197071
0.0197191
0.0197497
0.0197092
0.0196821
0.0195545
0.0197937
0.0196972
0.0198348
0.0197233
0.0197638
0.0198542
0.0198487
0.0197828
0.0196942
0.0197482
0.0198625
0.0198458
0.0197278
0.0198709
0.0198373
0.0197471
0.0197226
0.019721
0.0197244
0.0197107
0.019722
0.0197392
0.0197429
0.0196671
0.0196972
0.0196795
0.0197611
0.0198492
0.019682
0.0196872
0.0197176
0.0197216
0.0197507
0.0196973
0.0197264
0.0196976
0.0196945
0.0196497
0.0196922
0.01968
0.0196642
0.0196326
0.0196848
0.019706
0.0196935
0.0197755
0.0196683
0.0197783
0.0196145
0.0196706
0.0196393
0.019667
0.0196145
0.0197811
0.0196088
0.0196765
0.019779
0.0196223
0.0196784
0.019646
0.0199802
0.0197791
0.0196706
0.0196737
0.0197051
0.0197325
0.019737
0.0197235
0.0196715
0.0196708
0.0196538
0.0196414
0.0196918
0.0196468
0.0196708
0.0196533
0.0196635
0.0196373
0.0196404
0.0196859
0.0196311
0.0197016
0.0196522
0.0196414
0.0196354
0.0196286
0.0196727
0.0197452
0.0196394
0.0196731
0.0196455
0.0196525
0.0196829
0.0196369
0.0196552
0.0196847
0.0196576
0.0195791
0.0197242
0.0196296
0.0198453
0.0196128
0.0196544
0.0196657
0.0196352
0.0195923
0.0197061
0.0196497
0.0197423
0.0197917
0.0196698
0.0195979
0.0196679
0.0195956
0.0196858
0.0198263
0.0196905
0.0195306
0.0196407
0.0198015
0.0197108
0.0196621
0.0195371
0.0196074
0.0196561
0.019616
0.0196492
0.0196061
0.019631
0.0195944
0.0197019
0.0197127
0.0196429
0.0196433
0.0197417
0.0196845
0.0196965
0.019702
0.0197196
0.0197091
0.0197587
0.0197534
0.0196764
0.0196979
0.0197561
0.019682
0.0198369
0.0197201
0.0197668
0.0198578
0.0198511
0.0197267
0.0197252
0.0197208
0.0198649
0.0198484
0.0197238
0.0198752
0.0197493
0.0197176
0.0197211
0.0197448
0.0197482
0.019707
0.0197239
0.0197537
0.0196984
0.019723
0.0196995
0.0196975
0.019648
0.0196762
0.019657
0.0196776
0.0196318
0.0196065
0.0196799
0.0196971
0.0196931
0.0194937
0.019706
0.0196875
0.0196928
0.0197724
0.0197702
0.0197805
0.0197523
0.0194864
0.0194581
0.0196792
0.019641
0.0196071
0.0194871
0.0196596
0.0196828
0.0196503
0.0196764
0.0196048
0.0196937
0.0197253
0.0197371
0.0198594
0.0196997
0.0196681
0.019743
0.0196976
0.0197229
0.0196354
0.0196386
0.0196885
0.0196315
0.0197035
0.0196538
0.0196437
0.0196362
0.0196286
0.019655
0.0196594
0.019658
0.0196349
0.0197026
0.0195906
0.0196253
0.0196185
0.0195915
0.0196558
0.0196023
0.0197375
0.0196089
0.0196525
0.0196182
0.0196389
0.0196973
0.019657
0.0195795
0.0196533
0.0196129
0.0196194
0.0197053
0.0197122
0.01964
0.0197265
0.0196929
0.0196283
0.0195543
0.0196699
0.0196035
0.0196954
0.0197519
0.0195676
0.0196078
0.0196335
0.019636
0.0196142
0.019544
0.0198034
0.0196529
0.0195307
0.0197059
0.0195914
0.019599
0.0195891
0.0195466
0.0195727
0.0196009
0.0196483
0.0196106
0.0196058
0.0196149
0.0196458
0.0196338
0.0196571
0.0197444
0.0196787
0.0197181
0.019699
0.0197263
0.0196918
0.0197053
0.0197612
0.0196886
0.0196586
0.0197226
0.0197153
0.0197468
0.0197503
0.0197025
0.0197235
0.0197118
0.0196731
0.019653
0.019676
0.0196303
0.0196041
0.0196827
0.0197029
0.0196974
0.0196877
0.0196518
0.0196892
0.0195982
0.019668
0.0196986
0.0198105
0.0196728
0.0196754
0.0197055
0.019653
0.0195963
0.0197015
0.0195122
0.0196161
0.0195843
0.0195504
0.0196484
0.0196726
0.0196771
0.0196058
0.019551
0.0196615
0.0196764
0.0196387
0.019599
0.0196149
0.0196694
0.0196348
0.0196833
0.0197962
0.0196812
0.0195633
0.0197304
0.0196887
0.0196289
0.019668
0.0196574
0.0196613
0.019656
0.0196334
0.019701
0.0195891
0.0196233
0.0196183
0.0195901
0.0196146
0.0196084
0.0196752
0.0196003
0.0197037
0.0196409
0.019621
0.0195948
0.0196042
0.0196665
0.0196452
0.0196274
0.01961
0.0196393
0.0196214
0.019638
0.0196878
0.0196131
0.0196524
0.0196455
0.0196524
0.0196684
0.0195437
0.0196793
0.0197038
0.0196788
0.019684
0.0196441
0.0196328
0.0196441
0.0197002
0.0196839
0.0196984
0.0196643
0.0196327
0.0196657
0.0196317
0.0196295
0.0196181
0.0196473
0.019596
0.0196279
0.0195726
0.0195762
0.0196647
0.0195816
0.0196361
0.0196095
0.0195748
0.0196237
0.0196216
0.0195308
0.0195624
0.0196372
0.0195607
0.0195792
0.019652
0.019657
0.019642
0.019598
0.0196592
0.0195494
0.0196755
0.019729
0.0196423
0.0197285
0.0196788
0.0197007
0.0197231
0.0196606
0.0197058
0.0196993
0.019687
0.0196554
0.0196935
0.0195946
0.0196659
0.0196821
0.0195789
0.0195951
0.0195525
0.0196073
0.0196221
0.0196944
0.0196805
0.0197184
0.0198092
0.0195681
0.0196605
0.0196697
0.0195814
0.0196416
0.0196507
0.0196017
0.019612
0.019691
0.0196484
0.0196882
0.0196612
0.0195038
0.0196698
0.0196476
0.0195583
0.0195833
0.0196014
0.0195909
0.0197167
0.01968
0.0196684
0.0196557
0.0197078
0.0196198
0.0196769
0.0196126
0.0196066
0.0196776
0.0195992
0.0197059
0.0196433
0.0196234
0.0195945
0.0196044
0.0196718
0.019633
0.0196712
0.0196288
0.0196592
0.0196343
0.0195706
0.0195714
0.0196266
0.0195522
0.0196937
0.0196769
0.0196531
0.019582
0.0195944
0.0196863
0.0196867
0.0196531
0.0196977
0.0196663
0.0195964
0.0197556
0.0196372
0.0196814
0.0196032
0.0197002
0.0196072
0.0197153
0.0196481
0.0196362
0.0196641
0.0196307
0.0196014
0.019594
0.0196486
0.0196676
0.0197283
0.0196146
0.0196613
0.019577
0.0195797
0.0195931
0.019603
0.0195949
0.0196969
0.0196271
0.0196231
0.0196756
0.0195205
0.0196079
0.0195729
0.0196597
0.0196144
0.0197076
0.0196567
0.0196862
0.0196583
0.0196543
0.0196515
0.0195382
0.0195701
0.0197326
0.0196377
0.0196407
0.0196739
0.0196764
0.0197267
0.0196615
0.0196
0.0196596
0.0196645
0.0196854
0.0195756
0.0195918
0.0195482
0.0196093
0.0196235
0.0196849
0.0196638
0.0196167
0.0196716
0.0196505
0.0195893
0.0195815
0.0196708
0.0196557
0.0197261
0.0195749
0.019698
0.0196865
0.0196394
0.0195193
0.0195578
0.0195881
0.0196733
0.0196845
0.0196381
0.0195295
0.0197288
0.0195246
0.0196454
0.0196188
0.0195796
0.0195202
0.0195237
0.0196732
0.0196267
0.0196195
0.0196187
0.019605
0.019747
0.0197544
0.0196363
0.0196734
0.0196266
0.0196575
0.0196359
0.0195682
0.019569
0.0196286
0.019548
0.0195786
0.0195926
0.0196443
0.0196703
0.0195881
0.0195896
0.0196049
0.0196011
0.0195671
0.0195812
0.0196871
0.0196297
0.0194724
0.0196882
0.0196084
0.0196941
0.0196128
0.0196362
0.0196337
0.0196166
0.0196321
0.0197423
0.0196696
0.0196952
0.0196131
0.0196752
0.0195593
0.0196472
0.0195894
0.0196594
0.019607
0.0196348
0.0195636
0.0194943
0.0196134
0.0196269
0.0195674
0.0196372
0.019712
0.0197644
0.0195187
0.0195207
0.0195598
0.0195482
0.0195125
0.0195374
0.0195569
0.0195703
0.0197929
0.0196881
0.0196628
0.0196362
0.0195948
0.0196195
0.0196571
0.0196469
0.0196023
0.0196702
0.0196416
0.0196305
0.0196296
0.0195086
0.0195369
0.0195827
0.0196329
0.0196728
0.019663
0.0196531
0.019659
0.0196509
0.0196665
0.019721
0.0196947
0.0196863
0.0196616
0.0196183
0.0196778
0.019652
0.0195876
0.0195786
0.0196906
0.0195755
0.0195274
0.0196431
0.019567
0.0196339
0.0196254
0.0196118
0.0197001
0.0196593
0.0196071
0.0194621
0.0195157
0.0196468
0.0196072
0.0195902
0.0196384
0.0195589
0.0195528
0.01956
0.0196618
0.0196589
0.0196576
0.0196493
0.0196303
0.0196334
0.019692
0.0198029
0.0196511
0.0195719
0.0195669
0.0195455
0.0195798
0.0195992
0.0195843
0.0195832
0.0195747
0.0195896
0.0196463
0.0196727
0.0195862
0.0195917
0.0196096
0.0196035
0.0195652
0.0195842
0.0196179
0.0196368
0.0195978
0.0196285
0.019631
0.0195502
0.0195096
0.0195553
0.0195725
0.0196343
0.0196685
0.0195195
0.0197233
0.0195663
0.0195431
0.019684
0.0195632
0.0196231
0.0196526
0.0195493
0.0196741
0.0196257
0.0196889
0.0196568
0.0195773
0.019673
0.0196777
0.0194282
0.0195984
0.0196467
0.0196347
0.0196536
0.0197435
0.0196015
0.0195879
0.0195625
0.0196194
0.0196747
0.0196437
0.019491
0.0194497
0.0196092
0.0195418
0.0195591
0.0195462
0.0195232
0.0195597
0.019562
0.0195223
0.0195715
0.0196358
0.0195824
0.0196695
0.0196213
0.0195938
0.0196018
0.019618
0.0196731
0.0195898
0.0194779
0.0195571
0.0195392
0.0196257
0.0195936
0.0196732
0.0196531
0.0196741
0.0196503
0.0196976
0.0196862
0.0196917
0.0195729
0.0195241
0.0196425
0.0195618
0.0196368
0.0196274
0.0196146
0.01962
0.019667
0.019657
0.0196433
0.0195381
0.0195724
0.0195765
0.0196527
0.0195947
0.0197684
0.0196192
0.0195226
0.0195357
0.0194901
0.0195356
0.0196378
0.0195938
0.0196846
0.0195577
0.0195492
0.0196679
0.0196429
0.0195689
0.0195447
0.019676
0.0195108
0.0195004
0.0194976
0.0195588
0.0195996
0.0195974
0.0196231
0.0195926
0.0195317
0.0195253
0.019627
0.0196216
0.0196396
0.0195956
0.0196267
0.0196333
0.0195483
0.0195054
0.0195507
0.0195695
0.0195381
0.0195497
0.0196391
0.0196614
0.0195549
0.0195454
0.0195661
0.0195584
0.0195672
0.0195915
0.0196036
0.01966
0.0197003
0.0194293
0.0195787
0.0195847
0.0196024
0.0196076
0.0195849
0.0195464
0.0195515
0.0195826
0.0195653
0.0195938
0.0195676
0.0196251
0.0196796
0.0196764
0.0196965
0.019616
0.0195708
0.019775
0.0195351
0.0195322
0.0195817
0.019588
0.0195754
0.0196441
0.0195709
0.0195288
0.0195864
0.0196438
0.0195437
0.0195153
0.0195064
0.0195638
0.019519
0.019589
0.0195728
0.0195762
0.0195576
0.0195567
0.0195532
0.0195582
0.0195732
0.0196235
0.0196213
0.0196559
0.0195253
0.0195409
0.0196395
0.0195711
0.0196182
0.0195217
0.0196524
0.0196997
0.0196238
0.0196705
0.0196565
0.0196463
0.019534
0.0195709
0.019575
0.0195246
0.0195536
0.0195477
0.0195319
0.0196038
0.0196031
0.0195997
0.0195768
0.0195949
0.0197465
0.0193991
0.0195903
0.019612
0.0196434
0.0195552
0.0196054
0.0195964
0.0196266
0.0196021
0.0195877
0.0195806
0.0196062
0.0195773
0.0195217
0.0195453
0.0195342
0.0196199
0.0196037
0.0195779
0.0195846
0.0195781
0.019589
0.0195779
0.0195469
0.019624
0.0196732
0.0196202
0.0195886
0.0195357
0.0195475
0.0196416
0.0196648
0.0195514
0.0195461
0.0195683
0.0195588
0.0195694
0.0195942
0.0196069
0.0195885
0.0195906
0.0195641
0.0195982
0.0195076
0.0195621
0.0195627
0.0195553
0.0195663
0.019518
0.0196949
0.0196729
0.0195671
0.0195933
0.0195617
0.0196839
0.0196618
0.0195913
0.0195656
0.01953
0.0195562
0.0195485
0.0195819
0.0196033
0.0196097
0.0196275
0.0195515
0.0196314
0.0195302
0.0195367
0.0195967
0.0195298
0.0195379
0.0197132
0.0195965
0.019465
0.0195065
0.0194863
0.019479
0.0195079
0.0195649
0.0196412
0.0195727
0.0194925
0.0195583
0.0194966
0.0194906
0.0195511
0.0194671
0.0196257
0.0195414
0.0197527
0.0195167
0.0196596
0.0194866
0.019584
0.0195452
0.019565
0.0195209
0.0195502
0.0195429
0.0195267
0.0196055
0.0196056
0.0196033
0.0196181
0.0196343
0.0196119
0.0195832
0.0195867
0.0195403
0.019606
0.0195948
0.0196916
0.0196787
0.0195973
0.0196272
0.0194644
0.0195968
0.019622
0.019597
0.0195523
0.0195632
0.0196102
0.0195735
0.0195723
0.0196161
0.0195399
0.0196105
0.0196533
0.0195864
0.0195166
0.0195406
0.0195919
0.0195273
0.0196216
0.0195441
0.0195114
0.0196056
0.0195814
0.0196412
0.0196164
0.0194709
0.0195907
0.0195932
0.0195613
0.0196016
0.019508
0.0195622
0.0195632
0.0195528
0.0195648
0.0195153
0.0195526
0.0195436
0.0195296
0.0194774
0.01951
0.0194847
0.0195649
0.0195613
0.0195743
0.0196501
0.0195308
0.019605
0.0195919
0.0196145
0.0195727
0.0195158
0.0196032
0.0195432
0.0195705
0.0196095
0.0194564
0.0195057
0.0195752
0.0195689
0.0195323
0.0196592
0.0195584
0.0196379
0.0195158
0.0196099
0.0195567
0.0194899
0.0196118
0.0194517
0.0194864
0.0195058
0.0194665
0.0194956
0.0195282
0.0196343
0.0195771
0.0194373
0.0195016
0.0194496
0.0195246
0.0194702
0.019468
0.0196213
0.0194666
0.019458
0.0197253
0.0195904
0.0195627
0.0195248
0.0195621
0.0194223
0.019624
0.0196374
0.0196159
0.0195826
0.0195865
0.0195378
0.0194646
0.0195462
0.0195336
0.0195641
0.0195889
0.0195273
0.0194459
0.0195792
0.0195217
0.0195915
0.0195705
0.0197184
0.019585
0.019561
0.0194976
0.0195873
0.0195605
0.019553
0.0195925
0.0195328
0.0195618
0.0195635
0.0194735
0.0194877
0.0194806
0.0193888
0.0195653
0.0194888
0.019564
0.0195503
0.0195411
0.0195257
0.0194783
0.0195102
0.0194839
0.0195694
0.0195672
0.0195805
0.0195963
0.0195706
0.0195762
0.0194669
0.0194969
0.019472
0.0194586
0.0194402
0.0194107
0.0196104
0.0196247
0.0194533
0.0195821
0.0196776
0.019785
0.0195103
0.0195792
0.0195492
0.0196318
0.0195663
0.0195505
0.0196266
0.0195679
0.01963
0.0195257
0.019548
0.0195886
0.0195357
0.0196093
0.019459
0.0194024
0.019471
0.0194864
0.0194166
0.0194283
0.0195428
0.0193452
0.0195123
0.0194977
0.0195507
0.0195176
0.0195085
0.0194271
0.0195232
0.0194722
0.0194361
0.0195132
0.0194378
0.0195231
0.0194873
0.0196509
0.0194655
0.0196389
0.0194204
0.0193795
0.0194543
0.0194721
0.019459
0.0195428
0.0195303
0.0195713
0.0195924
0.0195848
0.0195642
0.019375
0.0194864
0.0195264
0.0195578
0.0195105
0.0195613
0.0194851
0.019521
0.0196158
0.0195487
0.0195899
0.0195821
0.0194912
0.0194393
0.0196561
0.0196242
0.0194417
0.0193222
0.0194328
0.0194423
0.0194992
0.0194884
0.019427
0.0196015
0.0195721
0.0195791
0.0194674
0.0195001
0.0194731
0.0194567
0.0194348
0.0194059
0.0194572
0.019555
0.0195465
0.0194187
0.0194303
0.0194397
0.0194471
0.0195001
0.0194789
0.0195128
0.0194385
0.0194802
0.0193879
0.0196221
0.0197514
0.0194381
0.019494
0.0195669
0.0195609
0.019552
0.0196053
0.0195847
0.0195054
0.0195262
0.0194961
0.019448
0.0195566
0.0194412
0.0195063
0.0194083
0.0194105
0.0194178
0.0194319
0.0194298
0.0194745
0.0195291
0.0195349
0.0195196
0.0196231
0.0195328
0.0195831
0.0194083
0.0194199
0.0193697
0.0193915
0.0193707
0.0194231
0.0193931
0.0194285
0.0195081
0.0195237
0.0195705
0.0193986
0.0194605
0.0193606
0.0195878
0.019568
0.0193687
0.0194843
0.0194802
0.0194324
0.0194491
0.0194216
0.0196226
0.0196341
0.01952
0.0195897
0.0195116
0.0194776
0.0194216
0.0196433
0.019546
0.0193938
0.0194478
0.0194745
0.0194482
0.0195408
0.0196669
0.0195558
0.0195475
0.019455
0.0194384
0.0193744
0.0195087
0.0194396
0.0194625
0.0194065
0.019456
0.0195559
0.0195438
0.0194174
0.0194278
0.01944
0.0194494
0.0195036
0.0194828
0.0194776
0.0193876
0.0194169
0.0194285
0.0193658
0.0193495
0.0193868
0.0193497
0.0194924
0.0194271
0.0193919
0.0194254
0.0194494
0.019486
0.0194682
0.0194669
0.0194417
0.0194965
0.0194506
0.019474
0.0194159
0.0194369
0.0194193
0.0193832
0.0193857
0.019476
0.0194539
0.0194603
0.0196156
0.0195096
0.0194955
0.0194069
0.0194464
0.0193864
0.0194038
0.0193956
0.0194323
0.0194515
0.0194324
0.0193943
0.0193866
0.0193597
0.019492
0.0193547
0.0194219
0.0193985
0.0194085
0.0194147
0.0194769
0.01943
0.0194524
0.0194202
0.0194175
0.0194723
0.019448
0.0193689
0.0194148
0.0195315
0.0195411
0.0193872
0.0194211
0.0194385
0.0194375
0.0195323
0.0195199
0.0194487
0.0194944
0.0193868
0.0194104
0.0194429
0.0193761
0.0194946
0.0194066
0.0194256
0.0194139
0.0194038
0.0195059
0.0194519
0.0193595
0.0193801
0.0194767
0.0193856
0.0194172
0.0194284
0.0193634
0.0193416
0.0193834
0.0193435
0.0194301
0.0193794
0.0193897
0.0194047
0.0194026
0.0194356
0.0193535
0.019416
0.0194237
0.0194589
0.019415
0.0193651
0.0194077
0.0194083
0.0195259
0.0195572
0.0194662
0.0195009
0.0195176
0.019451
0.0194132
0.0193936
0.0193374
0.0193785
0.0194123
0.0193384
0.0193615
0.0193485
0.0193976
0.0194352
0.0193668
0.019407
0.0194192
0.0195111
0.0194549
0.019419
0.0194118
0.0194272
0.0194021
0.0193827
0.0194303
0.0194228
0.0194328
0.0193822
0.0194047
0.019333
0.0193719
0.0193616
0.0194164
0.0194729
0.01945
0.0193654
0.0194158
0.0194392
0.0194174
0.0193613
0.0194113
0.019375
0.0195102
0.0194324
0.0194844
0.0194352
0.0193968
0.0195496
0.019372
0.0195
0.0193918
0.0193038
0.0194385
0.0194171
0.0194126
0.0194743
0.0194466
0.0194467
0.0193998
0.0194021
0.0194115
0.0193588
0.0195105
0.0193526
0.0194283
0.0193824
0.01943
0.0193789
0.0193884
0.0194063
0.0194043
0.0194382
0.0193531
0.0194183
0.0194261
0.0194059
0.0193446
0.0193579
0.0193734
0.0193999
0.0194201
0.0193904
0.0193252
0.0193532
0.0194241
0.0193256
0.019391
0.0194137
0.0194946
0.019366
0.0195495
0.0193873
0.0194036
0.019335
0.0193009
0.0193064
0.0193652
0.0193949
0.0193632
0.0193952
0.0193158
0.0193013
0.0193561
0.0194141
0.0194642
0.0193956
0.0194057
0.0195208
0.0193339
0.0193414
0.0193602
0.0192994
0.019411
0.0193623
0.0194051
0.0193474
0.0193551
0.0193593
0.0193144
0.019394
0.0193688
0.0194397
0.0194164
0.0193563
0.0194145
0.0193739
0.0193978
0.0193815
0.0194245
0.019417
0.0193596
0.019385
0.0194364
0.0193971
0.0193822
0.019306
0.0194669
0.0194118
0.019427
0.0195257
0.0193909
0.0193461
0.0194252
0.0193923
0.0193961
0.0193104
0.019358
0.0194224
0.019365
0.0193732
0.0195073
0.0193708
0.0194047
0.0193451
0.0193574
0.0193734
0.0193984
0.0194191
0.0193936
0.0193213
0.0193496
0.0194076
0.0193107
0.0193707
0.0193049
0.0193579
0.0194056
0.0192939
0.0193631
0.0193662
0.0193736
0.0194569
0.0194249
0.0194476
0.0193912
0.0193701
0.0193356
0.0194204
0.0193629
0.0193227
0.0192662
0.0193234
0.0193389
0.0193036
0.01944
0.0194054
0.0192495
0.0193229
0.0193169
0.0193107
0.0193539
0.0193527
0.0193801
0.0194343
0.0193392
0.0194636
0.0194639
0.019247
0.0193363
0.0193405
0.0194212
0.0193322
0.0193032
0.0193235
0.0193369
0.0192472
0.0192793
0.0194148
0.0193521
0.0193345
0.0193971
0.0193792
0.0194274
0.0194182
0.0193573
0.019386
0.0193849
0.019424
0.0193963
0.0193882
0.0193809
0.0194042
0.0193842
0.0193634
0.0193697
0.0194365
0.0195124
0.0194065
0.0194574
0.0193965
0.019285
0.0193545
0.0193472
0.0194066
0.0194082
0.0193492
0.0194125
0.0193554
0.0193979
0.0193228
0.019332
0.0194085
0.0193113
0.0193724
0.0193055
0.0193582
0.0194068
0.0192916
0.0193669
0.0193687
0.0193759
0.0193939
0.0193413
0.0193022
0.0193069
0.0193584
0.0193421
0.019352
0.0192386
0.0192731
0.0193279
0.0194342
0.0193469
0.0194012
0.0194216
0.0193612
0.0193827
0.0193774
0.0193003
0.0193662
0.0192455
0.01933
0.0193487
0.0193237
0.0191974
0.0192385
0.0193641
0.0192723
0.0193029
0.0193507
0.0193386
0.0193227
0.0193563
0.0194325
0.0192675
0.0193066
0.0193606
0.0193248
0.0192443
0.019444
0.0193443
0.0193544
0.0192932
0.0192432
0.0192509
0.0193044
0.019254
0.0192879
0.0192914
0.0193305
0.019317
0.0193664
0.0193306
0.0193859
0.0194258
0.0193959
0.0193859
0.0193828
0.0193699
0.0193964
0.019344
0.0194047
0.0193248
0.0193355
0.0193352
0.0193943
0.0193185
0.0193907
0.0192685
0.0194395
0.0194165
0.0193695
0.0193587
0.0193716
0.019379
0.0193301
0.0194451
0.0193059
0.0193756
0.0193214
0.0193503
0.0193237
0.0193454
0.0193958
0.0193443
0.0193005
0.0193069
0.0193622
0.0193403
0.0193571
0.0192343
0.0192699
0.0193262
0.0193698
0.0192509
0.0192878
0.0192902
0.019371
0.0192326
0.0193028
0.0192527
0.0193035
0.0193293
0.0193838
0.0193514
0.0193652
0.0192401
0.0192786
0.019259
0.0193972
0.0193881
0.0193136
0.019221
0.0194155
0.0192259
0.0193697
0.0192088
0.0193013
0.0192776
0.019286
0.0193293
0.0193092
0.0192949
0.0192386
0.0192902
0.0192523
0.0193479
0.0193667
0.0193083
0.0193693
0.0193681
0.0192139
0.0192972
0.019247
0.019291
0.0192328
0.0193025
0.0192107
0.0192418
0.0193359
0.0193413
0.0193282
0.0193281
0.0192751
0.0193718
0.0193964
0.0193429
0.019407
0.0193229
0.019319
0.0193776
0.0193823
0.0193122
0.0193049
0.0193245
0.0194263
0.0194956
0.0193489
0.0193354
0.0193459
0.0193403
0.0193942
0.0192736
0.0194501
0.0192663
0.0194288
0.0193605
0.0193696
0.0193142
0.0193715
0.0192484
0.0192889
0.0192875
0.0193753
0.0192274
0.0193036
0.0192542
0.0193058
0.0193303
0.0192812
0.0192182
0.019217
0.0192707
0.0192573
0.0192423
0.0192388
0.019229
0.0192719
0.0194032
0.0193437
0.0192398
0.0192367
0.0193232
0.0193759
0.0193169
0.0192039
0.0192097
0.019257
0.0192888
0.0191778
0.0192619
0.0193468
0.0192818
0.0193553
0.0192713
0.0193731
0.0193853
0.0192207
0.0192408
0.0192259
0.0193635
0.0193244
0.0193352
0.0191967
0.0192872
0.0192673
0.0192633
0.0192839
0.0192449
0.0191901
0.019219
0.01926
0.019149
0.019292
0.01929
0.0193732
0.019354
0.0193416
0.0193762
0.0192977
0.0192661
0.0193182
0.0193792
0.0193858
0.0193115
0.0193208
0.01935
0.0192727
0.0193291
0.0193717
0.0192469
0.0193774
0.0193187
0.0192812
0.01935
0.0192466
0.0192673
0.0193498
0.0193707
0.019359
0.0192821
0.0192142
0.0192171
0.0192667
0.0192593
0.0192398
0.0192387
0.0192258
0.0192709
0.019226
0.0192573
0.0192869
0.0192714
0.0192597
0.0192186
0.0192852
0.0192483
0.0192181
0.0192913
0.0192756
0.0193514
0.0193121
0.0190709
0.0192792
0.0192611
0.0193303
0.0193023
0.0193116
0.0193331
0.0192144
0.0192134
0.0192004
0.0192798
0.0192003
0.0192824
0.0192578
0.0192334
0.0191737
0.0193011
0.0192994
0.0192696
0.0191736
0.0192489
0.0192775
0.0191965
0.0192808
0.0193089
0.0192768
0.0192231
0.0192974
0.0192813
0.0192602
0.019276
0.0191917
0.0192221
0.0192138
0.0191804
0.0192299
0.0191976
0.0193275
0.019363
0.0193159
0.0193023
0.01916
0.0193162
0.0193501
0.0192247
0.0192008
0.019245
0.0193209
0.0193542
0.01927
0.019264
0.0193687
0.0193354
0.0192563
0.0193515
0.0191823
0.0192917
0.019235
0.0192232
0.0192582
0.0192887
0.0192738
0.0192565
0.0192158
0.0192877
0.0192495
0.0192185
0.0192946
0.0192762
0.0192678
0.0191883
0.0191926
0.0191609
0.0192628
0.0192068
0.0191887
0.0192118
0.0191974
0.0191586
0.0192385
0.0193609
0.0192975
0.0192182
0.0194158
0.019208
0.0192382
0.019163
0.0192816
0.0192884
0.0192106
0.0190807
0.0193797
0.0192893
0.0192518
0.0192259
0.019173
0.0192334
0.0191535
0.0192711
0.0192931
0.0191893
0.0192131
0.0192293
0.0192508
0.0192948
0.0191936
0.0193212
0.0192176
0.0192702
0.0191534
0.0192254
0.0192954
0.0193093
0.019285
0.0191748
0.0191593
0.0191898
0.0192113
0.0192156
0.0192323
0.0192331
0.0192296
0.0192015
0.0191742
0.0192514
0.0191859
0.0191873
0.0191558
0.0192554
0.0192146
0.0191703
0.019284
0.0191695
0.0192642
0.0192364
0.0193172
0.019367
0.0192539
0.0192098
0.0192381
0.0192088
0.0192717
0.0191856
0.0191907
0.0191549
0.0192627
0.0192089
0.0191856
0.0192117
0.0191972
0.0191542
0.019238
0.0191601
0.019258
0.0192325
0.0191576
0.0192403
0.0191897