# Selection   : all 
# Volume      : 3.242960e-04
# Time        	volAverage(Td)
0             	0.000000e+00
32            	0.000000e+00
