# vtk DataFile Version 2.0
DGS printing
ASCII
DATASET UNSTRUCTURED_GRID
POINTS  24  floats
21.28425 20.80755 19.37600 21.22945 20.81325 19.37600 21.22375 20.75845 19.37600 
21.27855 20.75275 19.37600 21.28425 20.80755 20.81797 21.22945 20.81325 20.81797 
21.22375 20.75845 20.81797 21.27855 20.75275 20.81797 21.25804 20.82175 19.37600 
21.21525 20.78704 19.37600 21.24996 20.74425 19.37600 21.29275 20.77896 19.37600 
21.25804 20.82175 20.81797 21.21525 20.78704 20.81797 21.24996 20.74425 20.81797 
21.29275 20.77896 20.81797 21.28425 20.80755 20.09698 21.22945 20.81325 20.09698 
21.22375 20.75845 20.09698 21.27855 20.75275 20.09698 21.29275 20.77896 20.09698 
21.21525 20.78704 20.09698 21.25804 20.82175 20.09698 21.24996 20.74425 20.09698 
CELLS  1   25
24 0 1 2 3 4 5 6 7 8 9 10 11 12 13 14 15 16 17 18 19 20 21 22 23
CELL_TYPES  1 
33
CELL_DATA  1 
SCALARS average_vol_activity_bq_m3 double 1 
LOOKUP_TABLE default
94.60693
SCALARS total_activity_bq double 1 
LOOKUP_TABLE default
0.65053
SCALARS mc_error double 1 
LOOKUP_TABLE default
0.00000
