# vtk DataFile Version 2.0
DGS printing
ASCII
DATASET UNSTRUCTURED_GRID
POINTS  24  floats
21.26284 20.82094 19.37600 21.21606 20.79184 19.37600 21.24516 20.74506 19.37600 
21.29194 20.77416 19.37600 21.26284 20.82094 20.81797 21.21606 20.79184 20.81797 
21.24516 20.74506 20.81797 21.29194 20.77416 20.81797 21.23342 20.81608 19.37600 
21.22092 20.76242 19.37600 21.27458 20.74992 19.37600 21.28708 20.80358 19.37600 
21.23342 20.81608 20.81797 21.22092 20.76242 20.81797 21.27458 20.74992 20.81797 
21.28708 20.80358 20.81797 21.26284 20.82094 20.09698 21.21606 20.79184 20.09698 
21.24516 20.74506 20.09698 21.29194 20.77416 20.09698 21.28708 20.80358 20.09698 
21.22092 20.76242 20.09698 21.23342 20.81608 20.09698 21.27458 20.74992 20.09698 
CELLS  1   25
24 0 1 2 3 4 5 6 7 8 9 10 11 12 13 14 15 16 17 18 19 20 21 22 23
CELL_TYPES  1 
33
CELL_DATA  1 
SCALARS average_vol_activity_bq_m3 double 1 
LOOKUP_TABLE default
94.60693
SCALARS total_activity_bq double 1 
LOOKUP_TABLE default
0.65053
SCALARS mc_error double 1 
LOOKUP_TABLE default
0.00000
