# vtk DataFile Version 2.0
DGS printing
ASCII
DATASET UNSTRUCTURED_GRID
POINTS  24  floats
21.27404 20.81641 19.37600 21.22059 20.80304 19.37600 21.23396 20.74959 19.37600 
21.28741 20.76296 19.37600 21.27404 20.81641 20.81797 21.22059 20.80304 20.81797 
21.23396 20.74959 20.81797 21.28741 20.76296 20.81797 21.24454 20.82079 19.37600 
21.21621 20.77354 19.37600 21.26346 20.74521 19.37600 21.29179 20.79246 19.37600 
21.24454 20.82079 20.81797 21.21621 20.77354 20.81797 21.26346 20.74521 20.81797 
21.29179 20.79246 20.81797 21.27404 20.81641 20.09698 21.22059 20.80304 20.09698 
21.23396 20.74959 20.09698 21.28741 20.76296 20.09698 21.29179 20.79246 20.09698 
21.21621 20.77354 20.09698 21.24454 20.82079 20.09698 21.26346 20.74521 20.09698 
CELLS  1   25
24 0 1 2 3 4 5 6 7 8 9 10 11 12 13 14 15 16 17 18 19 20 21 22 23
CELL_TYPES  1 
33
CELL_DATA  1 
SCALARS average_vol_activity_bq_m3 double 1 
LOOKUP_TABLE default
0.00000
SCALARS total_activity_bq double 1 
LOOKUP_TABLE default
0.00000
SCALARS mc_error double 1 
LOOKUP_TABLE default
0.00000
