# vtk DataFile Version 2.0
DGS printing
ASCII
DATASET UNSTRUCTURED_GRID
POINTS  24  floats
21.27754 20.81405 19.37600 21.22295 20.80654 19.37600 21.23046 20.75195 19.37600 
21.28505 20.75946 19.37600 21.27754 20.81405 20.81797 21.22295 20.80654 20.81797 
21.23046 20.75195 20.81797 21.28505 20.75946 20.81797 21.24869 20.82160 19.37600 
21.21540 20.77769 19.37600 21.25931 20.74440 19.37600 21.29260 20.78831 19.37600 
21.24869 20.82160 20.81797 21.21540 20.77769 20.81797 21.25931 20.74440 20.81797 
21.29260 20.78831 20.81797 21.27754 20.81405 20.09698 21.22295 20.80654 20.09698 
21.23046 20.75195 20.09698 21.28505 20.75946 20.09698 21.29260 20.78831 20.09698 
21.21540 20.77769 20.09698 21.24869 20.82160 20.09698 21.25931 20.74440 20.09698 
CELLS  1   25
24 0 1 2 3 4 5 6 7 8 9 10 11 12 13 14 15 16 17 18 19 20 21 22 23
CELL_TYPES  1 
33
CELL_DATA  1 
SCALARS average_vol_activity_bq_m3 double 1 
LOOKUP_TABLE default
0.00000
SCALARS total_activity_bq double 1 
LOOKUP_TABLE default
0.00000
SCALARS mc_error double 1 
LOOKUP_TABLE default
0.00000
