# vtk DataFile Version 2.0
DGS printing
ASCII
DATASET UNSTRUCTURED_GRID
POINTS  24  floats
21.29238 20.78971 19.37600 21.24729 20.82138 19.37600 21.21562 20.77629 19.37600 
21.26071 20.74462 19.37600 21.29238 20.78971 20.81797 21.24729 20.82138 20.81797 
21.21562 20.77629 20.81797 21.26071 20.74462 20.81797 21.27639 20.81488 19.37600 
21.22212 20.80539 19.37600 21.23161 20.75112 19.37600 21.28588 20.76061 19.37600 
21.27639 20.81488 20.81797 21.22212 20.80539 20.81797 21.23161 20.75112 20.81797 
21.28588 20.76061 20.81797 21.29238 20.78971 20.09698 21.24729 20.82138 20.09698 
21.21562 20.77629 20.09698 21.26071 20.74462 20.09698 21.28588 20.76061 20.09698 
21.22212 20.80539 20.09698 21.27639 20.81488 20.09698 21.23161 20.75112 20.09698 
CELLS  1   25
24 0 1 2 3 4 5 6 7 8 9 10 11 12 13 14 15 16 17 18 19 20 21 22 23
CELL_TYPES  1 
33
CELL_DATA  1 
SCALARS average_vol_activity_bq_m3 double 1 
LOOKUP_TABLE default
94.60693
SCALARS total_activity_bq double 1 
LOOKUP_TABLE default
0.65053
SCALARS mc_error double 1 
LOOKUP_TABLE default
0.00000
