# vtk DataFile Version 2.0
DGS printing
ASCII
DATASET UNSTRUCTURED_GRID
POINTS  24  floats
21.26306 20.82089 19.37600 21.21611 20.79206 19.37600 21.24494 20.74511 19.37600 
21.29189 20.77394 19.37600 21.26306 20.82089 20.81797 21.21611 20.79206 20.81797 
21.24494 20.74511 20.81797 21.29189 20.77394 20.81797 21.23362 20.81620 19.37600 
21.22080 20.76262 19.37600 21.27438 20.74980 19.37600 21.28720 20.80338 19.37600 
21.23362 20.81620 20.81797 21.22080 20.76262 20.81797 21.27438 20.74980 20.81797 
21.28720 20.80338 20.81797 21.26306 20.82089 20.09698 21.21611 20.79206 20.09698 
21.24494 20.74511 20.09698 21.29189 20.77394 20.09698 21.28720 20.80338 20.09698 
21.22080 20.76262 20.09698 21.23362 20.81620 20.09698 21.27438 20.74980 20.09698 
CELLS  1   25
24 0 1 2 3 4 5 6 7 8 9 10 11 12 13 14 15 16 17 18 19 20 21 22 23
CELL_TYPES  1 
33
CELL_DATA  1 
SCALARS node_id int 1 
LOOKUP_TABLE default
1
SCALARS average_vol_activity_bq_m3 double 1 
LOOKUP_TABLE default
9.46069e+01
SCALARS total_activity_bq double 1 
LOOKUP_TABLE default
6.50530e-01
SCALARS mc_error double 1 
LOOKUP_TABLE default
0.00000
