# vtk DataFile Version 2.0
DGS printing
ASCII
DATASET UNSTRUCTURED_GRID
POINTS  24  floats
21.26888 20.81900 19.37600 21.21800 20.79788 19.37600 21.23912 20.74700 19.37600 
21.29000 20.76812 19.37600 21.26888 20.81900 20.81797 21.21800 20.79788 20.81797 
21.23912 20.74700 20.81797 21.29000 20.76812 20.81797 21.23907 20.81898 19.37600 
21.21802 20.76807 19.37600 21.26893 20.74702 19.37600 21.28998 20.79793 19.37600 
21.23907 20.81898 20.81797 21.21802 20.76807 20.81797 21.26893 20.74702 20.81797 
21.28998 20.79793 20.81797 21.26888 20.81900 20.09698 21.21800 20.79788 20.09698 
21.23912 20.74700 20.09698 21.29000 20.76812 20.09698 21.28998 20.79793 20.09698 
21.21802 20.76807 20.09698 21.23907 20.81898 20.09698 21.26893 20.74702 20.09698 
CELLS  1   25
24 0 1 2 3 4 5 6 7 8 9 10 11 12 13 14 15 16 17 18 19 20 21 22 23
CELL_TYPES  1 
33
CELL_DATA  1 
SCALARS node_id int 1 
LOOKUP_TABLE default
1
SCALARS average_vol_activity_bq_m3 double 1 
LOOKUP_TABLE default
0.00000e+00
SCALARS total_activity_bq double 1 
LOOKUP_TABLE default
0.00000e+00
SCALARS mc_error double 1 
LOOKUP_TABLE default
0.00000
