# vtk DataFile Version 2.0
DGS printing
ASCII
DATASET UNSTRUCTURED_GRID
POINTS  24  floats
21.27514 20.81572 19.37600 21.22128 20.80414 19.37600 21.23286 20.75028 19.37600 
21.28672 20.76186 19.37600 21.27514 20.81572 20.81797 21.22128 20.80414 20.81797 
21.23286 20.75028 20.81797 21.28672 20.76186 20.81797 21.24581 20.82109 19.37600 
21.21591 20.77481 19.37600 21.26219 20.74491 19.37600 21.29209 20.79119 19.37600 
21.24581 20.82109 20.81797 21.21591 20.77481 20.81797 21.26219 20.74491 20.81797 
21.29209 20.79119 20.81797 21.27514 20.81572 20.09698 21.22128 20.80414 20.09698 
21.23286 20.75028 20.09698 21.28672 20.76186 20.09698 21.29209 20.79119 20.09698 
21.21591 20.77481 20.09698 21.24581 20.82109 20.09698 21.26219 20.74491 20.09698 
CELLS  1   25
24 0 1 2 3 4 5 6 7 8 9 10 11 12 13 14 15 16 17 18 19 20 21 22 23
CELL_TYPES  1 
33
CELL_DATA  1 
SCALARS node_id int 1 
LOOKUP_TABLE default
1
SCALARS average_vol_activity_bq_m3 double 1 
LOOKUP_TABLE default
9.46069e+01
SCALARS total_activity_bq double 1 
LOOKUP_TABLE default
6.50530e-01
SCALARS mc_error double 1 
LOOKUP_TABLE default
0.00000
