# vtk DataFile Version 2.0
DGS printing
ASCII
DATASET UNSTRUCTURED_GRID
POINTS  24  floats
21.27368 20.81662 19.37600 21.22038 20.80268 19.37600 21.23432 20.74938 19.37600 
21.28762 20.76332 19.37600 21.27368 20.81662 20.81797 21.22038 20.80268 20.81797 
21.23432 20.74938 20.81797 21.28762 20.76332 20.81797 21.24414 20.82069 19.37600 
21.21631 20.77314 19.37600 21.26386 20.74531 19.37600 21.29169 20.79286 19.37600 
21.24414 20.82069 20.81797 21.21631 20.77314 20.81797 21.26386 20.74531 20.81797 
21.29169 20.79286 20.81797 21.27368 20.81662 20.09698 21.22038 20.80268 20.09698 
21.23432 20.74938 20.09698 21.28762 20.76332 20.09698 21.29169 20.79286 20.09698 
21.21631 20.77314 20.09698 21.24414 20.82069 20.09698 21.26386 20.74531 20.09698 
CELLS  1   25
24 0 1 2 3 4 5 6 7 8 9 10 11 12 13 14 15 16 17 18 19 20 21 22 23
CELL_TYPES  1 
33
CELL_DATA  1 
SCALARS average_vol_activity_bq_m3 double 1 
LOOKUP_TABLE default
94.60693
SCALARS total_activity_bq double 1 
LOOKUP_TABLE default
0.65053
SCALARS mc_error double 1 
LOOKUP_TABLE default
0.00000
