# vtk DataFile Version 2.0
DGS printing
ASCII
DATASET UNSTRUCTURED_GRID
POINTS  24  floats
21.26622 20.81999 19.37600 21.21701 20.79522 19.37600 21.24178 20.74601 19.37600 
21.29099 20.77078 19.37600 21.26622 20.81999 20.81797 21.21701 20.79522 20.81797 
21.24178 20.74601 20.81797 21.29099 20.77078 20.81797 21.23648 20.81780 19.37600 
21.21920 20.76548 19.37600 21.27152 20.74820 19.37600 21.28880 20.80052 19.37600 
21.23648 20.81780 20.81797 21.21920 20.76548 20.81797 21.27152 20.74820 20.81797 
21.28880 20.80052 20.81797 21.26622 20.81999 20.09698 21.21701 20.79522 20.09698 
21.24178 20.74601 20.09698 21.29099 20.77078 20.09698 21.28880 20.80052 20.09698 
21.21920 20.76548 20.09698 21.23648 20.81780 20.09698 21.27152 20.74820 20.09698 
CELLS  1   25
24 0 1 2 3 4 5 6 7 8 9 10 11 12 13 14 15 16 17 18 19 20 21 22 23
CELL_TYPES  1 
33
CELL_DATA  1 
SCALARS average_vol_activity_bq_m3 double 1 
LOOKUP_TABLE default
94.60693
SCALARS total_activity_bq double 1 
LOOKUP_TABLE default
0.65053
SCALARS mc_error double 1 
LOOKUP_TABLE default
0.00000
