# vtk DataFile Version 2.0
DGS printing
ASCII
DATASET UNSTRUCTURED_GRID
POINTS  24  floats
21.26461 20.82049 19.37600 21.21651 20.79361 19.37600 21.24339 20.74551 19.37600 
21.29149 20.77239 19.37600 21.26461 20.82049 20.81797 21.21651 20.79361 20.81797 
21.24339 20.74551 20.81797 21.29149 20.77239 20.81797 21.23499 20.81701 19.37600 
21.21999 20.76399 19.37600 21.27301 20.74899 19.37600 21.28801 20.80201 19.37600 
21.23499 20.81701 20.81797 21.21999 20.76399 20.81797 21.27301 20.74899 20.81797 
21.28801 20.80201 20.81797 21.26461 20.82049 20.09698 21.21651 20.79361 20.09698 
21.24339 20.74551 20.09698 21.29149 20.77239 20.09698 21.28801 20.80201 20.09698 
21.21999 20.76399 20.09698 21.23499 20.81701 20.09698 21.27301 20.74899 20.09698 
CELLS  1   25
24 0 1 2 3 4 5 6 7 8 9 10 11 12 13 14 15 16 17 18 19 20 21 22 23
CELL_TYPES  1 
33
CELL_DATA  1 
SCALARS node_id int 1 
LOOKUP_TABLE default
1
SCALARS average_vol_activity_bq_m3 double 1 
LOOKUP_TABLE default
0.00000e+00
SCALARS total_activity_bq double 1 
LOOKUP_TABLE default
0.00000e+00
SCALARS mc_error double 1 
LOOKUP_TABLE default
0.00000
