# vtk DataFile Version 2.0
DGS printing
ASCII
DATASET UNSTRUCTURED_GRID
POINTS  24  floats
21.27985 20.81215 19.37600 21.22485 20.80885 19.37600 21.22815 20.75385 19.37600 
21.28315 20.75715 19.37600 21.27985 20.81215 20.81797 21.22485 20.80885 20.81797 
21.22815 20.75385 20.81797 21.28315 20.75715 20.81797 21.25167 20.82189 19.37600 
21.21511 20.78067 19.37600 21.25633 20.74411 19.37600 21.29289 20.78533 19.37600 
21.25167 20.82189 20.81797 21.21511 20.78067 20.81797 21.25633 20.74411 20.81797 
21.29289 20.78533 20.81797 21.27985 20.81215 20.09698 21.22485 20.80885 20.09698 
21.22815 20.75385 20.09698 21.28315 20.75715 20.09698 21.29289 20.78533 20.09698 
21.21511 20.78067 20.09698 21.25167 20.82189 20.09698 21.25633 20.74411 20.09698 
CELLS  1   25
24 0 1 2 3 4 5 6 7 8 9 10 11 12 13 14 15 16 17 18 19 20 21 22 23
CELL_TYPES  1 
33
CELL_DATA  1 
SCALARS node_id int 1 
LOOKUP_TABLE default
1
SCALARS average_vol_activity_bq_m3 double 1 
LOOKUP_TABLE default
9.46069e+01
SCALARS total_activity_bq double 1 
LOOKUP_TABLE default
6.50530e-01
SCALARS mc_error double 1 
LOOKUP_TABLE default
0.00000
