# vtk DataFile Version 2.0
DGS printing
ASCII
DATASET UNSTRUCTURED_GRID
POINTS  24  floats
21.28668 20.80421 19.37600 21.23279 20.81568 19.37600 21.22132 20.76179 19.37600 
21.27521 20.75032 19.37600 21.28668 20.80421 20.81797 21.23279 20.81568 20.81797 
21.22132 20.76179 20.81797 21.27521 20.75032 20.81797 21.26211 20.82111 19.37600 
21.21589 20.79111 19.37600 21.24589 20.74489 19.37600 21.29211 20.77489 19.37600 
21.26211 20.82111 20.81797 21.21589 20.79111 20.81797 21.24589 20.74489 20.81797 
21.29211 20.77489 20.81797 21.28668 20.80421 20.09698 21.23279 20.81568 20.09698 
21.22132 20.76179 20.09698 21.27521 20.75032 20.09698 21.29211 20.77489 20.09698 
21.21589 20.79111 20.09698 21.26211 20.82111 20.09698 21.24589 20.74489 20.09698 
CELLS  1   25
24 0 1 2 3 4 5 6 7 8 9 10 11 12 13 14 15 16 17 18 19 20 21 22 23
CELL_TYPES  1 
33
CELL_DATA  1 
SCALARS node_id int 1 
LOOKUP_TABLE default
1
SCALARS average_vol_activity_bq_m3 double 1 
LOOKUP_TABLE default
9.46069e+01
SCALARS total_activity_bq double 1 
LOOKUP_TABLE default
6.50530e-01
SCALARS mc_error double 1 
LOOKUP_TABLE default
0.00000
