# vtk DataFile Version 2.0
DGS printing
ASCII
DATASET UNSTRUCTURED_GRID
POINTS  24  floats
21.28198 20.81011 19.37600 21.22689 20.81098 19.37600 21.22602 20.75589 19.37600 
21.28111 20.75502 19.37600 21.28198 20.81011 20.81797 21.22689 20.81098 20.81797 
21.22602 20.75589 20.81797 21.28111 20.75502 20.81797 21.25462 20.82196 19.37600 
21.21504 20.78362 19.37600 21.25338 20.74404 19.37600 21.29296 20.78238 19.37600 
21.25462 20.82196 20.81797 21.21504 20.78362 20.81797 21.25338 20.74404 20.81797 
21.29296 20.78238 20.81797 21.28198 20.81011 20.09698 21.22689 20.81098 20.09698 
21.22602 20.75589 20.09698 21.28111 20.75502 20.09698 21.29296 20.78238 20.09698 
21.21504 20.78362 20.09698 21.25462 20.82196 20.09698 21.25338 20.74404 20.09698 
CELLS  1   25
24 0 1 2 3 4 5 6 7 8 9 10 11 12 13 14 15 16 17 18 19 20 21 22 23
CELL_TYPES  1 
33
CELL_DATA  1 
SCALARS node_id int 1 
LOOKUP_TABLE default
1
SCALARS average_vol_activity_bq_m3 double 1 
LOOKUP_TABLE default
9.46069e+01
SCALARS total_activity_bq double 1 
LOOKUP_TABLE default
6.50530e-01
SCALARS mc_error double 1 
LOOKUP_TABLE default
0.00000
