/*--------------------------------*- C++ -*----------------------------------*\
  =========                 |
  \\      /  F ield         | OpenFOAM: The Open Source CFD Toolbox
   \\    /   O peration     | Website:  https://openfoam.org
    \\  /    A nd           | Version:  10
     \\/     M anipulation  |
\*---------------------------------------------------------------------------*/
FoamFile
{
    format      ascii;
    class       volScalarField;
    location    "29";
    object      T;
}
// * * * * * * * * * * * * * * * * * * * * * * * * * * * * * * * * * * * * * //

dimensions      [0 0 0 0 0 0 0];

internalField   nonuniform List<scalar> 
111443
(
9.99986e+09
9.99983e+09
9.99949e+09
9.99964e+09
9.99974e+09
9.99953e+09
9.99929e+09
9.99937e+09
9.9997e+09
9.99984e+09
9.99951e+09
9.99974e+09
9.99947e+09
9.99978e+09
9.9989e+09
9.99938e+09
9.99915e+09
9.99897e+09
9.99958e+09
9.99933e+09
9.99962e+09
9.99976e+09
9.9995e+09
9.99898e+09
9.99974e+09
9.99947e+09
9.99891e+09
9.99973e+09
9.99972e+09
9.99862e+09
9.99877e+09
9.99908e+09
9.99955e+09
9.99938e+09
9.99893e+09
9.99875e+09
9.9999e+09
9.9993e+09
9.99971e+09
9.99914e+09
9.99986e+09
9.99949e+09
9.99976e+09
9.9995e+09
9.99898e+09
9.99874e+09
9.99869e+09
9.99973e+09
9.99947e+09
9.99891e+09
9.99973e+09
9.99867e+09
9.9995e+09
9.99992e+09
9.99952e+09
9.99881e+09
9.99847e+09
9.99832e+09
9.9992e+09
9.99914e+09
9.99981e+09
9.99903e+09
9.99946e+09
9.99856e+09
9.99846e+09
9.99986e+09
9.99889e+09
9.99959e+09
9.99948e+09
9.99876e+09
9.99931e+09
9.9998e+09
9.99948e+09
9.99974e+09
9.99905e+09
9.99976e+09
9.99951e+09
9.99897e+09
9.99873e+09
9.99868e+09
9.9983e+09
9.99807e+09
9.99972e+09
9.99948e+09
9.9989e+09
9.99973e+09
9.99868e+09
9.9995e+09
9.99816e+09
9.99899e+09
9.99976e+09
9.99991e+09
9.99974e+09
9.99886e+09
9.99856e+09
9.9982e+09
9.99822e+09
9.99806e+09
9.99804e+09
9.99929e+09
9.99868e+09
9.99937e+09
9.9998e+09
9.99874e+09
9.99905e+09
9.99841e+09
9.99851e+09
9.99989e+09
9.99867e+09
9.99893e+09
9.99975e+09
9.99936e+09
9.99908e+09
9.99986e+09
9.99876e+09
9.99957e+09
9.99894e+09
9.99956e+09
9.99948e+09
9.99974e+09
9.99905e+09
9.99949e+09
9.99874e+09
9.99975e+09
9.9995e+09
9.99888e+09
9.99872e+09
9.99867e+09
9.99829e+09
9.99806e+09
9.9983e+09
9.99788e+09
9.99779e+09
9.9997e+09
9.99946e+09
9.9988e+09
9.99972e+09
9.99868e+09
9.9995e+09
9.99817e+09
9.99899e+09
9.99976e+09
9.99773e+09
9.99873e+09
9.99984e+09
9.99949e+09
9.99867e+09
9.99849e+09
9.99822e+09
9.99782e+09
9.99805e+09
9.99832e+09
9.99808e+09
9.99782e+09
9.99798e+09
9.99918e+09
9.99875e+09
9.99922e+09
9.99879e+09
9.9993e+09
9.99822e+09
9.99829e+09
9.99962e+09
9.99862e+09
9.9984e+09
9.99873e+09
9.9998e+09
9.99926e+09
9.99946e+09
9.99881e+09
9.99986e+09
9.99848e+09
9.99865e+09
9.99936e+09
9.99877e+09
9.99984e+09
9.99948e+09
9.99974e+09
9.99904e+09
9.99949e+09
9.99874e+09
9.99976e+09
9.99897e+09
9.99974e+09
9.99935e+09
9.99853e+09
9.99861e+09
9.99859e+09
9.99827e+09
9.99801e+09
9.9983e+09
9.99786e+09
9.99779e+09
9.99791e+09
9.99739e+09
9.99725e+09
9.99929e+09
9.99842e+09
9.9997e+09
9.99863e+09
9.99951e+09
9.9981e+09
9.99898e+09
9.99976e+09
9.99773e+09
9.99872e+09
9.99949e+09
9.99726e+09
9.9978e+09
9.999e+09
9.99826e+09
9.99961e+09
9.99972e+09
9.99883e+09
9.99825e+09
9.99805e+09
9.99786e+09
9.998e+09
9.9976e+09
9.99777e+09
9.99806e+09
9.99781e+09
9.99752e+09
9.99774e+09
9.99893e+09
9.99863e+09
9.99905e+09
9.99893e+09
9.99844e+09
9.99936e+09
9.99793e+09
9.99802e+09
9.99962e+09
9.99879e+09
9.99808e+09
9.998e+09
9.99893e+09
9.99952e+09
9.99951e+09
9.99937e+09
9.99951e+09
9.99933e+09
9.99849e+09
9.99869e+09
9.99961e+09
9.99844e+09
9.99899e+09
9.99939e+09
9.99962e+09
9.99946e+09
9.99973e+09
9.99897e+09
9.99948e+09
9.99873e+09
9.99976e+09
9.99897e+09
9.99953e+09
9.9987e+09
9.99973e+09
9.9979e+09
9.99818e+09
9.99825e+09
9.9981e+09
9.99766e+09
9.99828e+09
9.99782e+09
9.99776e+09
9.99791e+09
9.99738e+09
9.99725e+09
9.99806e+09
9.99739e+09
9.99734e+09
9.99686e+09
9.99722e+09
9.99675e+09
9.99702e+09
9.99768e+09
9.99969e+09
9.99835e+09
9.99949e+09
9.99772e+09
9.99888e+09
9.99975e+09
9.99764e+09
9.99871e+09
9.99949e+09
9.99725e+09
9.9978e+09
9.999e+09
9.99826e+09
9.99972e+09
9.99731e+09
9.99696e+09
9.99733e+09
9.99872e+09
9.998e+09
9.99981e+09
9.99943e+09
9.99861e+09
9.9981e+09
9.99773e+09
9.99809e+09
9.9976e+09
9.99771e+09
9.99792e+09
9.99779e+09
9.99754e+09
9.99762e+09
9.99748e+09
9.99869e+09
9.99931e+09
9.99875e+09
9.99876e+09
9.99936e+09
9.9987e+09
9.99842e+09
9.99897e+09
9.99804e+09
9.99762e+09
9.99767e+09
9.99808e+09
9.99988e+09
9.99865e+09
9.99896e+09
9.99811e+09
9.99729e+09
9.99764e+09
9.99976e+09
9.9993e+09
9.99974e+09
9.99898e+09
9.99961e+09
9.99984e+09
9.99931e+09
9.99924e+09
9.99897e+09
9.99843e+09
9.99981e+09
9.99907e+09
9.99957e+09
9.9998e+09
9.99929e+09
9.99972e+09
9.99869e+09
9.99949e+09
9.99865e+09
9.99976e+09
9.99896e+09
9.99953e+09
9.9987e+09
9.99901e+09
9.99974e+09
9.99676e+09
9.99696e+09
9.9973e+09
9.9963e+09
9.99809e+09
9.99752e+09
9.99755e+09
9.99789e+09
9.99734e+09
9.99707e+09
9.99806e+09
9.99739e+09
9.99686e+09
9.99675e+09
9.99701e+09
9.99783e+09
9.99734e+09
9.99686e+09
9.99718e+09
9.99686e+09
9.99632e+09
9.997e+09
9.99704e+09
9.99669e+09
9.9962e+09
9.99656e+09
9.99734e+09
9.99936e+09
9.99666e+09
9.99856e+09
9.99974e+09
9.99723e+09
9.99863e+09
9.9995e+09
9.99707e+09
9.99774e+09
9.99899e+09
9.99822e+09
9.99972e+09
9.99694e+09
9.99733e+09
9.99872e+09
9.99803e+09
9.99943e+09
9.99703e+09
9.9973e+09
9.99699e+09
9.9966e+09
9.99733e+09
9.99724e+09
9.99891e+09
9.99827e+09
9.99793e+09
9.99757e+09
9.99957e+09
9.99972e+09
9.99834e+09
9.99728e+09
9.99804e+09
9.99813e+09
9.99729e+09
9.99754e+09
9.99802e+09
9.99763e+09
9.99756e+09
9.9973e+09
9.99718e+09
9.9984e+09
9.99896e+09
9.99941e+09
9.99868e+09
9.99892e+09
9.9985e+09
9.99947e+09
9.99825e+09
9.99874e+09
9.99786e+09
9.99756e+09
9.99769e+09
9.99803e+09
9.99987e+09
9.99877e+09
9.99875e+09
9.99873e+09
9.99806e+09
9.99805e+09
9.99731e+09
9.99727e+09
9.99722e+09
9.9965e+09
9.99957e+09
9.99932e+09
9.99978e+09
9.99895e+09
9.99937e+09
9.99952e+09
9.99893e+09
9.9996e+09
9.99887e+09
9.99875e+09
9.9983e+09
9.99925e+09
9.9997e+09
9.99815e+09
9.99948e+09
9.99831e+09
9.99975e+09
9.99887e+09
9.99952e+09
9.99869e+09
9.99901e+09
9.99974e+09
9.99873e+09
9.99944e+09
9.99468e+09
9.99319e+09
9.99729e+09
9.99629e+09
9.9966e+09
9.9977e+09
9.99706e+09
9.99621e+09
9.99802e+09
9.99731e+09
9.99671e+09
9.99662e+09
9.99687e+09
9.99783e+09
9.99687e+09
9.99631e+09
9.9962e+09
9.99654e+09
9.99829e+09
9.99746e+09
9.99699e+09
9.99672e+09
9.99692e+09
9.99634e+09
9.9969e+09
9.99673e+09
9.99631e+09
9.99578e+09
9.99674e+09
9.99679e+09
9.99653e+09
9.99622e+09
9.9961e+09
9.9957e+09
9.9965e+09
9.99634e+09
9.99496e+09
9.99803e+09
9.99972e+09
9.99617e+09
9.99836e+09
9.99949e+09
9.9963e+09
9.99738e+09
9.9989e+09
9.99794e+09
9.99971e+09
9.99678e+09
9.99724e+09
9.99872e+09
9.998e+09
9.99943e+09
9.99699e+09
9.99658e+09
9.99727e+09
9.9989e+09
9.99828e+09
9.99761e+09
9.99972e+09
9.99704e+09
9.99682e+09
9.99702e+09
9.99655e+09
9.99656e+09
9.99638e+09
9.99734e+09
9.99719e+09
9.99673e+09
9.99869e+09
9.99814e+09
9.99799e+09
9.99765e+09
9.99741e+09
9.9973e+09
9.99985e+09
9.99981e+09
9.99948e+09
9.99821e+09
9.99729e+09
9.9969e+09
9.99726e+09
9.99806e+09
9.99765e+09
9.99806e+09
9.99802e+09
9.99732e+09
9.99725e+09
9.9965e+09
9.99773e+09
9.99846e+09
9.99873e+09
9.99907e+09
9.99881e+09
9.99879e+09
9.9989e+09
9.99857e+09
9.99921e+09
9.99809e+09
9.99847e+09
9.99757e+09
9.99736e+09
9.99753e+09
9.99775e+09
9.99954e+09
9.99895e+09
9.99887e+09
9.99848e+09
9.99887e+09
9.99771e+09
9.99803e+09
9.9985e+09
9.99805e+09
9.9977e+09
9.99819e+09
9.99728e+09
9.99728e+09
9.99652e+09
9.99726e+09
9.99691e+09
9.99687e+09
9.99649e+09
9.99644e+09
9.99571e+09
9.9998e+09
9.99919e+09
9.99955e+09
9.99951e+09
9.99979e+09
9.99895e+09
9.9986e+09
9.99983e+09
9.99929e+09
9.99859e+09
9.99891e+09
9.99931e+09
9.99718e+09
9.99974e+09
9.99854e+09
9.99953e+09
9.99861e+09
9.999e+09
9.99974e+09
9.99873e+09
9.99943e+09
9.99971e+09
9.99498e+09
9.9926e+09
9.99373e+09
9.99682e+09
9.99586e+09
9.99383e+09
9.99768e+09
9.99673e+09
9.99583e+09
9.99589e+09
9.99624e+09
9.99778e+09
9.99677e+09
9.99616e+09
9.99593e+09
9.99626e+09
9.9983e+09
9.99746e+09
9.99693e+09
9.99635e+09
9.99577e+09
9.99608e+09
9.99569e+09
9.99632e+09
9.99824e+09
9.99803e+09
9.99758e+09
9.99704e+09
9.99633e+09
9.99674e+09
9.99657e+09
9.99577e+09
9.99648e+09
9.99625e+09
9.99588e+09
9.99533e+09
9.99637e+09
9.99613e+09
9.99594e+09
9.99555e+09
9.99568e+09
9.99516e+09
9.9964e+09
9.99625e+09
9.99594e+09
9.99259e+09
9.99733e+09
9.99934e+09
9.99372e+09
9.99622e+09
9.99859e+09
9.99698e+09
9.99969e+09
9.99606e+09
9.9967e+09
9.99866e+09
9.99778e+09
9.99943e+09
9.99688e+09
9.99636e+09
9.9972e+09
9.99889e+09
9.99824e+09
9.99753e+09
9.99971e+09
9.99655e+09
9.99637e+09
9.99677e+09
9.99869e+09
9.998e+09
9.99734e+09
9.99948e+09
9.99682e+09
9.99681e+09
9.99699e+09
9.99652e+09
9.99639e+09
9.99638e+09
9.99648e+09
9.99595e+09
9.99704e+09
9.99693e+09
9.99655e+09
9.99647e+09
9.99896e+09
9.9982e+09
9.99806e+09
9.99796e+09
9.99752e+09
9.99774e+09
9.99719e+09
9.99682e+09
9.99955e+09
9.99974e+09
9.99678e+09
9.99648e+09
9.99676e+09
9.99722e+09
9.99698e+09
9.99778e+09
9.99835e+09
9.99755e+09
9.99752e+09
9.99771e+09
9.9985e+09
9.99806e+09
9.99769e+09
9.99806e+09
9.99851e+09
9.99728e+09
9.99726e+09
9.99653e+09
9.99726e+09
9.9969e+09
9.99647e+09
9.99572e+09
9.99816e+09
9.99855e+09
9.99884e+09
9.99935e+09
9.99914e+09
9.99913e+09
9.99782e+09
9.99736e+09
9.9995e+09
9.99848e+09
9.99833e+09
9.99857e+09
9.99767e+09
9.99814e+09
9.99789e+09
9.99835e+09
9.99776e+09
9.99766e+09
9.99754e+09
9.99792e+09
9.99693e+09
9.99723e+09
9.99736e+09
9.99695e+09
9.99727e+09
9.99649e+09
9.9965e+09
9.99573e+09
9.99698e+09
9.99676e+09
9.99649e+09
9.99613e+09
9.9965e+09
9.99608e+09
9.99571e+09
9.99567e+09
9.99492e+09
9.99958e+09
9.99913e+09
9.99955e+09
9.99896e+09
9.99848e+09
9.99834e+09
9.9996e+09
9.99928e+09
9.99874e+09
9.99972e+09
9.99791e+09
9.99953e+09
9.99832e+09
9.9989e+09
9.99973e+09
9.99873e+09
9.99943e+09
9.99971e+09
9.99946e+09
9.99398e+09
9.99159e+09
9.99027e+09
9.99634e+09
9.99478e+09
9.993e+09
9.99376e+09
9.99434e+09
9.99741e+09
9.99615e+09
9.99523e+09
9.99473e+09
9.99508e+09
9.99826e+09
9.99741e+09
9.99679e+09
9.99616e+09
9.99555e+09
9.99579e+09
9.99535e+09
9.99607e+09
9.99804e+09
9.99759e+09
9.99659e+09
9.99577e+09
9.99531e+09
9.99553e+09
9.99513e+09
9.99593e+09
9.99798e+09
9.99809e+09
9.99743e+09
9.99734e+09
9.99681e+09
9.99603e+09
9.9966e+09
9.99649e+09
9.99609e+09
9.99683e+09
9.99574e+09
9.99564e+09
9.99531e+09
9.99603e+09
9.99578e+09
9.99562e+09
9.99519e+09
9.99487e+09
9.99608e+09
9.99587e+09
9.99553e+09
9.9951e+09
9.99546e+09
9.99532e+09
9.99507e+09
9.99476e+09
9.99661e+09
9.99621e+09
9.9961e+09
9.99581e+09
9.98791e+09
9.9926e+09
9.99808e+09
9.99514e+09
9.99968e+09
9.99376e+09
9.99459e+09
9.99839e+09
9.99702e+09
9.99941e+09
9.99628e+09
9.99543e+09
9.99673e+09
9.99879e+09
9.99796e+09
9.99701e+09
9.9997e+09
9.99641e+09
9.99622e+09
9.99663e+09
9.99869e+09
9.99797e+09
9.99728e+09
9.99948e+09
9.99642e+09
9.99594e+09
9.99654e+09
9.99897e+09
9.9982e+09
9.99753e+09
9.99686e+09
9.99974e+09
9.99679e+09
9.99639e+09
9.99588e+09
9.99615e+09
9.99623e+09
9.99585e+09
9.99566e+09
9.9969e+09
9.99653e+09
9.99632e+09
9.9959e+09
9.999e+09
9.9987e+09
9.99792e+09
9.99765e+09
9.99738e+09
9.9972e+09
9.99753e+09
9.99729e+09
9.9966e+09
9.99647e+09
9.9998e+09
9.9995e+09
9.99614e+09
9.99647e+09
9.99712e+09
9.99687e+09
9.99773e+09
9.99833e+09
9.99752e+09
9.99761e+09
9.99844e+09
9.9983e+09
9.99782e+09
9.99776e+09
9.9983e+09
9.99866e+09
9.99692e+09
9.99732e+09
9.99689e+09
9.99732e+09
9.9965e+09
9.99648e+09
9.99574e+09
9.99698e+09
9.99688e+09
9.99677e+09
9.99651e+09
9.99614e+09
9.9964e+09
9.9957e+09
9.9957e+09
9.99493e+09
9.9979e+09
9.99914e+09
9.99917e+09
9.99772e+09
9.99705e+09
9.99986e+09
9.99934e+09
9.99842e+09
9.99825e+09
9.99881e+09
9.99745e+09
9.99846e+09
9.99788e+09
9.998e+09
9.99759e+09
9.99778e+09
9.99764e+09
9.99752e+09
9.99794e+09
9.99694e+09
9.99728e+09
9.99708e+09
9.997e+09
9.99613e+09
9.99646e+09
9.99647e+09
9.99612e+09
9.9965e+09
9.99569e+09
9.9957e+09
9.99494e+09
9.99621e+09
9.99599e+09
9.99622e+09
9.99598e+09
9.9957e+09
9.99577e+09
9.99538e+09
9.99572e+09
9.99531e+09
9.99554e+09
9.99493e+09
9.9949e+09
9.99415e+09
9.99981e+09
9.99942e+09
9.99923e+09
9.99985e+09
9.99895e+09
9.99849e+09
9.9985e+09
9.99982e+09
9.99887e+09
9.99939e+09
9.99703e+09
9.99858e+09
9.99972e+09
9.99866e+09
9.99943e+09
9.99971e+09
9.99945e+09
9.99974e+09
9.99896e+09
9.9932e+09
9.9912e+09
9.98797e+09
9.98956e+09
9.9902e+09
9.99604e+09
9.99407e+09
9.99233e+09
9.99159e+09
9.99202e+09
9.99798e+09
9.99709e+09
9.99597e+09
9.99509e+09
9.99444e+09
9.99457e+09
9.9939e+09
9.99508e+09
9.99801e+09
9.99752e+09
9.99649e+09
9.99537e+09
9.99499e+09
9.9952e+09
9.9947e+09
9.99569e+09
9.9981e+09
9.99735e+09
9.9961e+09
9.99684e+09
9.99565e+09
9.9953e+09
9.99483e+09
9.99506e+09
9.99543e+09
9.99472e+09
9.9976e+09
9.99726e+09
9.99605e+09
9.99631e+09
9.99618e+09
9.99668e+09
9.99589e+09
9.99582e+09
9.99662e+09
9.99558e+09
9.99539e+09
9.9951e+09
9.99518e+09
9.99486e+09
9.99539e+09
9.99496e+09
9.99478e+09
9.99447e+09
9.99597e+09
9.99547e+09
9.99523e+09
9.99501e+09
9.99458e+09
9.99506e+09
9.99528e+09
9.99475e+09
9.99428e+09
9.99632e+09
9.99576e+09
9.98746e+09
9.98917e+09
9.99751e+09
9.99506e+09
9.99921e+09
9.99412e+09
9.99213e+09
9.99514e+09
9.99841e+09
9.99708e+09
9.99542e+09
9.99969e+09
9.99557e+09
9.99547e+09
9.99579e+09
9.99863e+09
9.99776e+09
9.99684e+09
9.99949e+09
9.99629e+09
9.99573e+09
9.99641e+09
9.99895e+09
9.99815e+09
9.99743e+09
9.99669e+09
9.99974e+09
9.9959e+09
9.99566e+09
9.99596e+09
9.9987e+09
9.99793e+09
9.99723e+09
9.99652e+09
9.99949e+09
9.99612e+09
9.99579e+09
9.99559e+09
9.99562e+09
9.99518e+09
9.99619e+09
9.99603e+09
9.99569e+09
9.99563e+09
9.99872e+09
9.99896e+09
9.99818e+09
9.9974e+09
9.99762e+09
9.99712e+09
9.99669e+09
9.99652e+09
9.99634e+09
9.99594e+09
9.99959e+09
9.99974e+09
9.99599e+09
9.99618e+09
9.99672e+09
9.99804e+09
9.99762e+09
9.99841e+09
9.99725e+09
9.99759e+09
9.9988e+09
9.99808e+09
9.99841e+09
9.99785e+09
9.99761e+09
9.99773e+09
9.99851e+09
9.99804e+09
9.99841e+09
9.99896e+09
9.99674e+09
9.997e+09
9.99677e+09
9.99686e+09
9.99708e+09
9.99614e+09
9.99649e+09
9.99615e+09
9.99655e+09
9.99572e+09
9.99571e+09
9.99495e+09
9.99697e+09
9.99683e+09
9.99676e+09
9.99622e+09
9.99612e+09
9.99634e+09
9.99572e+09
9.99533e+09
9.99569e+09
9.99536e+09
9.99567e+09
9.99491e+09
9.99492e+09
9.99415e+09
9.99921e+09
9.99921e+09
9.99698e+09
9.99891e+09
9.99822e+09
9.99871e+09
9.99829e+09
9.99848e+09
9.99802e+09
9.99754e+09
9.99798e+09
9.99762e+09
9.99761e+09
9.99745e+09
9.99756e+09
9.99743e+09
9.99794e+09
9.99672e+09
9.99692e+09
9.9968e+09
9.99714e+09
9.99714e+09
9.99591e+09
9.99614e+09
9.99621e+09
9.99599e+09
9.996e+09
9.99621e+09
9.9953e+09
9.99565e+09
9.99572e+09
9.99572e+09
9.99535e+09
9.99491e+09
9.99493e+09
9.99416e+09
9.99543e+09
9.99542e+09
9.99544e+09
9.99521e+09
9.99461e+09
9.99494e+09
9.99502e+09
9.99493e+09
9.99455e+09
9.99499e+09
9.99416e+09
9.99413e+09
9.99338e+09
9.99981e+09
9.99956e+09
9.99959e+09
9.99894e+09
9.9998e+09
9.99961e+09
9.99886e+09
9.99846e+09
9.9985e+09
9.99801e+09
9.9997e+09
9.9984e+09
9.9994e+09
9.9997e+09
9.99945e+09
9.99974e+09
9.99896e+09
9.99946e+09
9.99874e+09
9.99275e+09
9.98959e+09
9.98649e+09
9.98657e+09
9.98746e+09
9.99697e+09
9.9958e+09
9.99327e+09
9.99202e+09
9.99125e+09
9.9915e+09
9.99016e+09
9.99217e+09
9.99777e+09
9.99712e+09
9.99581e+09
9.99355e+09
9.99357e+09
9.99391e+09
9.99309e+09
9.99468e+09
9.99806e+09
9.99732e+09
9.99581e+09
9.99668e+09
9.99536e+09
9.99491e+09
9.99441e+09
9.9946e+09
9.99503e+09
9.99427e+09
9.9976e+09
9.99586e+09
9.99663e+09
9.9951e+09
9.99483e+09
9.99441e+09
9.99451e+09
9.99505e+09
9.99421e+09
9.99755e+09
9.99582e+09
9.99589e+09
9.99654e+09
9.99571e+09
9.9961e+09
9.99535e+09
9.99698e+09
9.99532e+09
9.99501e+09
9.99498e+09
9.99473e+09
9.99485e+09
9.99446e+09
9.99468e+09
9.99473e+09
9.99448e+09
9.99402e+09
9.99531e+09
9.99513e+09
9.99463e+09
9.99439e+09
9.99459e+09
9.99419e+09
9.99504e+09
9.9945e+09
9.99422e+09
9.99389e+09
9.99549e+09
9.98766e+09
9.98417e+09
9.99129e+09
9.9977e+09
9.9956e+09
9.99272e+09
9.99967e+09
9.99231e+09
9.99268e+09
9.99318e+09
9.99834e+09
9.99701e+09
9.99552e+09
9.99948e+09
9.99554e+09
9.99467e+09
9.99564e+09
9.99884e+09
9.99783e+09
9.99686e+09
9.99581e+09
9.99973e+09
9.99567e+09
9.9955e+09
9.99568e+09
9.99869e+09
9.99789e+09
9.99716e+09
9.99638e+09
9.99949e+09
9.99566e+09
9.99518e+09
9.9957e+09
9.99897e+09
9.99819e+09
9.99741e+09
9.99671e+09
9.99597e+09
9.99974e+09
9.996e+09
9.9957e+09
9.9954e+09
9.99506e+09
9.99536e+09
9.99508e+09
9.99488e+09
9.99608e+09
9.99571e+09
9.99554e+09
9.99513e+09
9.99872e+09
9.99809e+09
9.9977e+09
9.99731e+09
9.99706e+09
9.99654e+09
9.99638e+09
9.99605e+09
9.99575e+09
9.99562e+09
9.99945e+09
9.99786e+09
9.99741e+09
9.99705e+09
9.99747e+09
9.9987e+09
9.99798e+09
9.99812e+09
9.9978e+09
9.99757e+09
9.99757e+09
9.99842e+09
9.99886e+09
9.99808e+09
9.99789e+09
9.99816e+09
9.99872e+09
9.99868e+09
9.99665e+09
9.99708e+09
9.99682e+09
9.99672e+09
9.99683e+09
9.99708e+09
9.996e+09
9.99615e+09
9.99651e+09
9.99605e+09
9.99631e+09
9.99574e+09
9.99537e+09
9.99535e+09
9.99577e+09
9.99491e+09
9.99492e+09
9.99416e+09
9.99682e+09
9.9965e+09
9.99622e+09
9.99597e+09
9.99545e+09
9.99531e+09
9.99522e+09
9.99554e+09
9.99535e+09
9.99556e+09
9.99494e+09
9.99454e+09
9.99487e+09
9.99457e+09
9.99494e+09
9.99413e+09
9.99415e+09
9.99337e+09
9.99963e+09
9.99888e+09
9.99813e+09
9.99833e+09
9.99855e+09
9.99842e+09
9.99787e+09
9.99783e+09
9.99799e+09
9.99751e+09
9.99786e+09
9.99741e+09
9.99756e+09
9.99795e+09
9.9967e+09
9.99691e+09
9.99714e+09
9.99699e+09
9.99597e+09
9.99617e+09
9.99628e+09
9.99597e+09
9.99595e+09
9.99619e+09
9.99509e+09
9.99521e+09
9.99533e+09
9.99571e+09
9.99547e+09
9.99543e+09
9.99524e+09
9.99456e+09
9.99484e+09
9.9946e+09
9.99495e+09
9.99497e+09
9.99415e+09
9.99416e+09
9.99338e+09
9.99551e+09
9.99466e+09
9.99466e+09
9.99445e+09
9.99449e+09
9.9938e+09
9.99417e+09
9.99418e+09
9.99379e+09
9.99417e+09
9.99421e+09
9.99338e+09
9.99337e+09
9.99261e+09
9.99972e+09
9.99984e+09
9.99947e+09
9.99901e+09
9.99983e+09
9.99853e+09
9.9983e+09
9.99848e+09
9.99736e+09
9.99921e+09
9.99968e+09
9.99946e+09
9.99974e+09
9.99895e+09
9.99946e+09
9.99874e+09
9.99499e+09
9.9918e+09
9.98826e+09
9.9869e+09
9.98353e+09
9.98595e+09
9.98199e+09
9.98599e+09
9.99688e+09
9.99555e+09
9.99357e+09
9.98875e+09
9.98954e+09
9.99069e+09
9.98915e+09
9.99164e+09
9.99784e+09
9.99704e+09
9.99438e+09
9.99573e+09
9.99394e+09
9.9932e+09
9.99275e+09
9.99295e+09
9.99347e+09
9.99265e+09
9.99754e+09
9.99564e+09
9.99654e+09
9.99465e+09
9.9943e+09
9.99386e+09
9.99391e+09
9.99471e+09
9.99356e+09
9.99756e+09
9.99611e+09
9.99535e+09
9.99699e+09
9.995e+09
9.99472e+09
9.99442e+09
9.99394e+09
9.99454e+09
9.99413e+09
9.9938e+09
9.99536e+09
9.99591e+09
9.99505e+09
9.99677e+09
9.99471e+09
9.995e+09
9.99488e+09
9.99448e+09
9.99423e+09
9.99458e+09
9.99437e+09
9.99407e+09
9.99443e+09
9.99421e+09
9.99393e+09
9.99354e+09
9.99481e+09
9.99455e+09
9.99434e+09
9.99413e+09
9.99447e+09
9.99423e+09
9.9937e+09
9.99476e+09
9.99391e+09
9.99351e+09
9.984e+09
9.98548e+09
9.98825e+09
9.99738e+09
9.9953e+09
9.99297e+09
9.99933e+09
9.99302e+09
9.99096e+09
9.99353e+09
9.9985e+09
9.99684e+09
9.9953e+09
9.99354e+09
9.99972e+09
9.99436e+09
9.99456e+09
9.99433e+09
9.99863e+09
9.99764e+09
9.9967e+09
9.99559e+09
9.9995e+09
9.99545e+09
9.99482e+09
9.99548e+09
9.99895e+09
9.99814e+09
9.9973e+09
9.9965e+09
9.99564e+09
9.99974e+09
9.99513e+09
9.99491e+09
9.99517e+09
9.99872e+09
9.99773e+09
9.99708e+09
9.99641e+09
9.99567e+09
9.99945e+09
9.99537e+09
9.9949e+09
9.99483e+09
9.99484e+09
9.99438e+09
9.99524e+09
9.99496e+09
9.99489e+09
9.99834e+09
9.99903e+09
9.99748e+09
9.99721e+09
9.99782e+09
9.99658e+09
9.99633e+09
9.99586e+09
9.99608e+09
9.99554e+09
9.99515e+09
9.99975e+09
9.99719e+09
9.99758e+09
9.99764e+09
9.99767e+09
9.99731e+09
9.99781e+09
9.99727e+09
9.9987e+09
9.99903e+09
9.99817e+09
9.998e+09
9.99836e+09
9.99879e+09
9.99895e+09
9.9964e+09
9.99687e+09
9.99695e+09
9.99678e+09
9.99646e+09
9.99675e+09
9.9965e+09
9.99697e+09
9.996e+09
9.99603e+09
9.99613e+09
9.99624e+09
9.99601e+09
9.99559e+09
9.99529e+09
9.99522e+09
9.99547e+09
9.99454e+09
9.9949e+09
9.99456e+09
9.99491e+09
9.99414e+09
9.99414e+09
9.99338e+09
9.9965e+09
9.99543e+09
9.99513e+09
9.99521e+09
9.99515e+09
9.99464e+09
9.99442e+09
9.99453e+09
9.99478e+09
9.99447e+09
9.99467e+09
9.99414e+09
9.99378e+09
9.99419e+09
9.9938e+09
9.99421e+09
9.99337e+09
9.99338e+09
9.9926e+09
9.99951e+09
9.99816e+09
9.99834e+09
9.99849e+09
9.998e+09
9.99852e+09
9.99768e+09
9.99793e+09
9.99723e+09
9.99779e+09
9.9975e+09
9.99756e+09
9.99713e+09
9.9979e+09
9.99675e+09
9.99688e+09
9.99681e+09
9.99616e+09
9.99622e+09
9.99602e+09
9.99571e+09
9.99558e+09
9.99606e+09
9.99508e+09
9.99524e+09
9.9951e+09
9.99536e+09
9.99519e+09
9.99542e+09
9.99522e+09
9.99444e+09
9.99454e+09
9.99485e+09
9.99467e+09
9.99469e+09
9.99491e+09
9.99381e+09
9.9941e+09
9.99418e+09
9.9938e+09
9.99414e+09
9.99338e+09
9.99337e+09
9.99261e+09
9.99468e+09
9.99385e+09
9.99368e+09
9.99389e+09
9.99368e+09
9.9937e+09
9.9939e+09
9.99393e+09
9.99303e+09
9.9934e+09
9.99329e+09
9.99304e+09
9.9934e+09
9.99324e+09
9.99261e+09
9.9926e+09
9.99184e+09
9.99972e+09
9.99976e+09
9.99947e+09
9.99901e+09
9.99793e+09
9.99775e+09
9.9983e+09
9.99967e+09
9.99944e+09
9.99973e+09
9.99884e+09
9.99946e+09
9.99873e+09
9.99431e+09
9.99166e+09
9.98915e+09
9.98085e+09
9.98051e+09
9.98382e+09
9.9801e+09
9.98473e+09
9.99683e+09
9.99563e+09
9.99088e+09
9.99292e+09
9.99054e+09
9.98885e+09
9.98822e+09
9.98881e+09
9.98905e+09
9.98889e+09
9.99707e+09
9.99448e+09
9.99587e+09
9.99282e+09
9.99222e+09
9.9918e+09
9.99192e+09
9.99324e+09
9.99152e+09
9.99751e+09
9.99578e+09
9.99486e+09
9.99683e+09
9.99458e+09
9.99428e+09
9.99385e+09
9.99324e+09
9.99398e+09
9.99355e+09
9.99307e+09
9.99591e+09
9.99505e+09
9.99677e+09
9.99446e+09
9.9942e+09
9.99402e+09
9.99341e+09
9.99422e+09
9.99354e+09
9.99335e+09
9.99535e+09
9.99451e+09
9.99449e+09
9.99456e+09
9.9943e+09
9.99411e+09
9.99422e+09
9.99418e+09
9.99392e+09
9.99407e+09
9.99356e+09
9.99374e+09
9.9934e+09
9.99307e+09
9.99399e+09
9.9938e+09
9.9942e+09
9.99373e+09
9.99357e+09
9.99341e+09
9.99344e+09
9.99459e+09
9.99369e+09
9.9934e+09
9.99306e+09
9.98667e+09
9.98328e+09
9.98914e+09
9.99793e+09
9.99521e+09
9.99299e+09
9.99024e+09
9.9997e+09
9.99038e+09
9.99141e+09
9.99081e+09
9.99836e+09
9.99683e+09
9.99531e+09
9.99359e+09
9.99949e+09
9.99432e+09
9.9931e+09
9.99436e+09
9.99885e+09
9.9978e+09
9.99668e+09
9.99551e+09
9.99424e+09
9.99973e+09
9.99473e+09
9.99463e+09
9.99468e+09
9.9987e+09
9.99768e+09
9.997e+09
9.99628e+09
9.99546e+09
9.99945e+09
9.99492e+09
9.99438e+09
9.99494e+09
9.99834e+09
9.99902e+09
9.99726e+09
9.99784e+09
9.99661e+09
9.99589e+09
9.99516e+09
9.99974e+09
9.99515e+09
9.9947e+09
9.99493e+09
9.99436e+09
9.99429e+09
9.9941e+09
9.99524e+09
9.99489e+09
9.99475e+09
9.99444e+09
9.99676e+09
9.99736e+09
9.99642e+09
9.99576e+09
9.99558e+09
9.99496e+09
9.99488e+09
9.99736e+09
9.99741e+09
9.99714e+09
9.99784e+09
9.99701e+09
9.99734e+09
9.99871e+09
9.99903e+09
9.99818e+09
9.99802e+09
9.99746e+09
9.99836e+09
9.99878e+09
9.99895e+09
9.99683e+09
9.99638e+09
9.99647e+09
9.99628e+09
9.99646e+09
9.99627e+09
9.99658e+09
9.99572e+09
9.99574e+09
9.99582e+09
9.9957e+09
9.99528e+09
9.99529e+09
9.99513e+09
9.9952e+09
9.9954e+09
9.99521e+09
9.99446e+09
9.99469e+09
9.99445e+09
9.99463e+09
9.99421e+09
9.9938e+09
9.99381e+09
9.9941e+09
9.99338e+09
9.99338e+09
9.9926e+09
9.99495e+09
9.99466e+09
9.99441e+09
9.99446e+09
9.99441e+09
9.99455e+09
9.99447e+09
9.99464e+09
9.99388e+09
9.99367e+09
9.99391e+09
9.99368e+09
9.99389e+09
9.99339e+09
9.99301e+09
9.99342e+09
9.99304e+09
9.99337e+09
9.99261e+09
9.99261e+09
9.99183e+09
9.9995e+09
9.99815e+09
9.99831e+09
9.99848e+09
9.998e+09
9.99851e+09
9.9977e+09
9.99758e+09
9.99724e+09
9.99778e+09
9.99749e+09
9.99706e+09
9.99752e+09
9.99714e+09
9.99687e+09
9.99759e+09
9.99646e+09
9.99692e+09
9.99611e+09
9.99623e+09
9.99629e+09
9.9958e+09
9.99559e+09
9.99574e+09
9.99549e+09
9.99562e+09
9.99517e+09
9.99532e+09
9.99501e+09
9.99447e+09
9.99435e+09
9.9945e+09
9.99468e+09
9.99471e+09
9.99443e+09
9.99456e+09
9.9938e+09
9.99407e+09
9.9939e+09
9.99367e+09
9.99383e+09
9.99305e+09
9.99338e+09
9.99339e+09
9.99303e+09
9.99339e+09
9.99262e+09
9.99261e+09
9.99184e+09
9.99382e+09
9.99366e+09
9.99389e+09
9.99373e+09
9.99346e+09
9.99291e+09
9.99308e+09
9.99313e+09
9.99353e+09
9.99312e+09
9.99303e+09
9.99228e+09
9.99263e+09
9.99272e+09
9.99263e+09
9.99224e+09
9.99269e+09
9.99186e+09
9.99183e+09
9.99107e+09
9.99971e+09
9.99976e+09
9.99946e+09
9.999e+09
9.99559e+09
9.99766e+09
9.99927e+09
9.99972e+09
9.99847e+09
9.99947e+09
9.99863e+09
9.99381e+09
9.99137e+09
9.98631e+09
9.9887e+09
9.98463e+09
9.98002e+09
9.97764e+09
9.98085e+09
9.98088e+09
9.97854e+09
9.99496e+09
9.99167e+09
9.99362e+09
9.98854e+09
9.98713e+09
9.98643e+09
9.98713e+09
9.98925e+09
9.98655e+09
9.99722e+09
9.9943e+09
9.99301e+09
9.99593e+09
9.99291e+09
9.9925e+09
9.99181e+09
9.99096e+09
9.99193e+09
9.99176e+09
9.99098e+09
9.99569e+09
9.99467e+09
9.99668e+09
9.99376e+09
9.99356e+09
9.99328e+09
9.99248e+09
9.9938e+09
9.99259e+09
9.99237e+09
9.99533e+09
9.99445e+09
9.99411e+09
9.99421e+09
9.99389e+09
9.99341e+09
9.99293e+09
9.99364e+09
9.99328e+09
9.99336e+09
9.99281e+09
9.99424e+09
9.99404e+09
9.99415e+09
9.99365e+09
9.99372e+09
9.99418e+09
9.99391e+09
9.99342e+09
9.99349e+09
9.99322e+09
9.99332e+09
9.99304e+09
9.99256e+09
9.99392e+09
9.99361e+09
9.99342e+09
9.99333e+09
9.99337e+09
9.99295e+09
9.99294e+09
9.99333e+09
9.99303e+09
9.99277e+09
9.98315e+09
9.98437e+09
9.98494e+09
9.99737e+09
9.99484e+09
9.9926e+09
9.99008e+09
9.99934e+09
9.99119e+09
9.98843e+09
9.99167e+09
9.99852e+09
9.99674e+09
9.99486e+09
9.99304e+09
9.99106e+09
9.99971e+09
9.99291e+09
9.99313e+09
9.99283e+09
9.9986e+09
9.99736e+09
9.99647e+09
9.99552e+09
9.99435e+09
9.99945e+09
9.99461e+09
9.99384e+09
9.99458e+09
9.99832e+09
9.99902e+09
9.99717e+09
9.99781e+09
9.99646e+09
9.99559e+09
9.99462e+09
9.99974e+09
9.9944e+09
9.99415e+09
9.99444e+09
9.99679e+09
9.99738e+09
9.99646e+09
9.99561e+09
9.99492e+09
9.99447e+09
9.99417e+09
9.99412e+09
9.99406e+09
9.99363e+09
9.99419e+09
9.99421e+09
9.99591e+09
9.99555e+09
9.99509e+09
9.99483e+09
9.99446e+09
9.99713e+09
9.99785e+09
9.99703e+09
9.99735e+09
9.9987e+09
9.99902e+09
9.99815e+09
9.99799e+09
9.99747e+09
9.99834e+09
9.99877e+09
9.99895e+09
9.99685e+09
9.99635e+09
9.99646e+09
9.99627e+09
9.99653e+09
9.99621e+09
9.99651e+09
9.99585e+09
9.99548e+09
9.99569e+09
9.99533e+09
9.99501e+09
9.99479e+09
9.99494e+09
9.99522e+09
9.99517e+09
9.99439e+09
9.99439e+09
9.99444e+09
9.99459e+09
9.99435e+09
9.99414e+09
9.99386e+09
9.99383e+09
9.99306e+09
9.99355e+09
9.99303e+09
9.99353e+09
9.99262e+09
9.99261e+09
9.99183e+09
9.99454e+09
9.99421e+09
9.99418e+09
9.99418e+09
9.99393e+09
9.99371e+09
9.9937e+09
9.99392e+09
9.99367e+09
9.99386e+09
9.99313e+09
9.99291e+09
9.99292e+09
9.99312e+09
9.99291e+09
9.99305e+09
9.99328e+09
9.99264e+09
9.99226e+09
9.99265e+09
9.99228e+09
9.99268e+09
9.99184e+09
9.99185e+09
9.99106e+09
9.9995e+09
9.99812e+09
9.99814e+09
9.99845e+09
9.99799e+09
9.9985e+09
9.99768e+09
9.99619e+09
9.99723e+09
9.99773e+09
9.99744e+09
9.99705e+09
9.99722e+09
9.99705e+09
9.99688e+09
9.99648e+09
9.99632e+09
9.99691e+09
9.99613e+09
9.99598e+09
9.99626e+09
9.99587e+09
9.99559e+09
9.9958e+09
9.99548e+09
9.99563e+09
9.99517e+09
9.99458e+09
9.99507e+09
9.9951e+09
9.99429e+09
9.99463e+09
9.99444e+09
9.99383e+09
9.9937e+09
9.99382e+09
9.99394e+09
9.99372e+09
9.99384e+09
9.99371e+09
9.99307e+09
9.99333e+09
9.99311e+09
9.9929e+09
9.99309e+09
9.99333e+09
9.99228e+09
9.99262e+09
9.99261e+09
9.99263e+09
9.99227e+09
9.99184e+09
9.99185e+09
9.99107e+09
9.99369e+09
9.99344e+09
9.99379e+09
9.99352e+09
9.99295e+09
9.99309e+09
9.99318e+09
9.9932e+09
9.9931e+09
9.99215e+09
9.99236e+09
9.99236e+09
9.99268e+09
9.99237e+09
9.99215e+09
9.99216e+09
9.99265e+09
9.99149e+09
9.99188e+09
9.99168e+09
9.99153e+09
9.99187e+09
9.99187e+09
9.99107e+09
9.99108e+09
9.9903e+09
9.99971e+09
9.99976e+09
9.99945e+09
9.99892e+09
9.99521e+09
9.9997e+09
9.99786e+09
9.99945e+09
9.99831e+09
9.98952e+09
9.98741e+09
9.98911e+09
9.98141e+09
9.97707e+09
9.97455e+09
9.97758e+09
9.98195e+09
9.97545e+09
9.99592e+09
9.99076e+09
9.98924e+09
9.99288e+09
9.98945e+09
9.98845e+09
9.98709e+09
9.98552e+09
9.98685e+09
9.98784e+09
9.98636e+09
9.99455e+09
9.99313e+09
9.99604e+09
9.99146e+09
9.99131e+09
9.99081e+09
9.98988e+09
9.99212e+09
9.98986e+09
9.98965e+09
9.99488e+09
9.99376e+09
9.9935e+09
9.99363e+09
9.99327e+09
9.99229e+09
9.99187e+09
9.99279e+09
9.9924e+09
9.99263e+09
9.99152e+09
9.99422e+09
9.99357e+09
9.9936e+09
9.99332e+09
9.99314e+09
9.99223e+09
9.99341e+09
9.99271e+09
9.99275e+09
9.99257e+09
9.99373e+09
9.99349e+09
9.99345e+09
9.99329e+09
9.99358e+09
9.99346e+09
9.99336e+09
9.99322e+09
9.99275e+09
9.99285e+09
9.99257e+09
9.99215e+09
9.99239e+09
9.99379e+09
9.99335e+09
9.99298e+09
9.99308e+09
9.9931e+09
9.99279e+09
9.9927e+09
9.99281e+09
9.99272e+09
9.99292e+09
9.99272e+09
9.99227e+09
9.98497e+09
9.98135e+09
9.98668e+09
9.99795e+09
9.9949e+09
9.9919e+09
9.98964e+09
9.98662e+09
9.9997e+09
9.98841e+09
9.9893e+09
9.98884e+09
9.99822e+09
9.99629e+09
9.99481e+09
9.9933e+09
9.99164e+09
9.99943e+09
9.99317e+09
9.99164e+09
9.99308e+09
9.99819e+09
9.99895e+09
9.99657e+09
9.9975e+09
9.9956e+09
9.99419e+09
9.99266e+09
9.99974e+09
9.99377e+09
9.99373e+09
9.99373e+09
9.99668e+09
9.99733e+09
9.99636e+09
9.99544e+09
9.99457e+09
9.9942e+09
9.99361e+09
9.99424e+09
9.99595e+09
9.99511e+09
9.99444e+09
9.99398e+09
9.99367e+09
9.99351e+09
9.99339e+09
9.99403e+09
9.99378e+09
9.99465e+09
9.9943e+09
9.99414e+09
9.99714e+09
9.99781e+09
9.99703e+09
9.99727e+09
9.9986e+09
9.99894e+09
9.99792e+09
9.99777e+09
9.99741e+09
9.99818e+09
9.99869e+09
9.99888e+09
9.99675e+09
9.99637e+09
9.99645e+09
9.99627e+09
9.99654e+09
9.99621e+09
9.99652e+09
9.99587e+09
9.99547e+09
9.99569e+09
9.99525e+09
9.99534e+09
9.99481e+09
9.99465e+09
9.99494e+09
9.99485e+09
9.99484e+09
9.99413e+09
9.99434e+09
9.99422e+09
9.99447e+09
9.99431e+09
9.99388e+09