/*--------------------------------*- C++ -*----------------------------------*\
  =========                 |
  \\      /  F ield         | OpenFOAM: The Open Source CFD Toolbox
   \\    /   O peration     | Website:  https://openfoam.org
    \\  /    A nd           | Version:  8
     \\/     M anipulation  |
\*---------------------------------------------------------------------------*/
FoamFile
{
    version     2.0;
    format      ascii;
    class       volVectorField;
    location    "270";
    object      U;
}
// * * * * * * * * * * * * * * * * * * * * * * * * * * * * * * * * * * * * * //

dimensions      [0 1 -1 0 0 0 0];

internalField   nonuniform List<vector> 
70210
(
(0.000143897 0.0500902 0.000182142)
(0.000970641 0.0475855 0.000265583)
(-0.00112741 0.0637477 0.000510729)
(-0.000330601 0.0280614 0.000182206)
(0.00240739 0.0571936 0.000192972)
(0.000242277 0.050808 7.20596e-05)
(0.000756635 0.0300849 0.000508846)
(0.000789376 0.0534564 0.00083642)
(-1.22953e-05 0.0670839 0.00140796)
(-0.000436004 0.0681191 -0.00054672)
(-7.47113e-05 0.0144121 0.000286645)
(0.00083716 0.0322044 0.000370676)
(0.00176882 0.0470087 0.000516411)
(0.00108231 0.0572682 -1.70011e-05)
(-0.000412632 0.0294364 -0.000109728)
(8.35317e-05 0.04918 -0.000547589)
(0.000852326 0.0167855 0.00045391)
(0.000234378 0.0300126 -0.000244643)
(0.000535349 0.0499237 -3.48644e-05)
(0.000664866 0.0487191 -0.000362603)
(-0.00117466 0.0714074 0.00100403)
(-0.000284571 0.0879777 0.00156014)
(-0.000229881 0.087504 0.000508805)
(-2.01261e-05 0.00429478 0.000174966)
(0.0010369 0.0179719 0.00048337)
(0.000726312 0.0269074 0.000502041)
(-0.000156718 0.0321995 -0.000257592)
(0.0015863 0.043468 -0.000540144)
(-0.000522837 0.0609256 0.0014647)
(8.10994e-07 0.0512183 -0.00132146)
(-0.000157124 0.067982 0.000281885)
(0.000105678 0.0156244 0.000163893)
(0.000475204 0.0311952 0.000169759)
(-0.000414278 0.0520269 -0.000589317)
(0.000349172 0.00562622 0.000103787)
(0.000202524 0.0168628 -0.000344759)
(0.00109264 0.0288791 -0.000496502)
(0.000541805 0.0289991 0.000439049)
(-0.000858871 0.0429634 -0.000341374)
(0.000280967 0.0654467 -0.000794291)
(0.000660753 0.0413023 0.000786252)
(-0.00101799 0.0463184 -0.00164832)
(1.14071e-06 0.0900218 0.000796666)
(-0.000102443 0.0877357 -0.00038429)
(-0.00057408 0.0914244 0.00142516)
(0.000621888 0.0856229 0.000141221)
(0.000531317 0.00628058 0.000255581)
(0.000670965 0.0137605 0.000321032)
(-0.000382929 0.0175506 -0.000281235)
(0.000657772 0.0268614 0.00131976)
(-0.000417284 0.0291264 0.00153349)
(0.000760453 0.030087 0.000290923)
(0.00115499 0.0579231 -0.00159751)
(-0.000724238 0.06549 -0.000160861)
(0.000116646 0.0493656 0.000357868)
(-0.00061018 0.0309954 -0.000604508)
(-0.000445828 0.0644842 -0.000771564)
(0.000344528 0.0657538 0.000386571)
(0.00013281 0.0670722 0.000758911)
(0.000101461 0.00491956 0.000124428)
(0.000675427 0.0177087 0.000260383)
(-0.000203138 0.0292033 -8.20645e-06)
(0.000580181 0.0625205 0.000310097)
(-3.18175e-05 0.00549125 -0.000239292)
(0.000616732 0.014865 -0.00036763)
(4.15562e-05 0.0147977 0.000316476)
(0.00101975 0.0271151 -0.000594587)
(0.000737282 0.0248482 0.000220869)
(-0.00111004 0.0528995 0.000901974)
(-0.000796242 0.0434404 -0.00155638)
(0.000255843 0.0533634 -0.000416453)
(-0.000166024 0.0613175 -0.000285757)
(0.000902111 0.0284632 0.00112332)
(-3.63311e-05 0.0678447 -0.000539499)
(3.05032e-05 0.0909019 0.000507367)
(-0.00048198 0.0932761 0.000750171)
(1.48129e-05 0.0847012 -0.00178365)
(0.000133758 0.0936294 -0.00066252)
(-3.01366e-05 0.0919401 0.000190829)
(0.000493316 0.0918364 0.000562915)
(-0.000563784 0.0927914 -0.000332132)
(0.000377418 0.00401465 0.000130645)
(-0.000396468 0.00558056 -0.000229626)
(0.000912163 0.0144394 0.00067406)
(-0.00072196 0.0160214 0.000970546)
(0.000595542 0.0145621 -9.04485e-05)
(0.00133254 0.0251761 0.000754872)
(-7.33341e-05 0.026899 0.000411444)
(0.000209287 0.0286462 -2.80442e-05)
(0.00117726 0.0489131 -0.00156501)
(-0.00100819 0.0682869 0.000216571)
(-0.000416752 0.087438 0.000357146)
(-0.000217579 0.0630307 -0.00058282)
(-0.000356918 0.0169142 -0.00058951)
(-0.00055878 0.0329182 5.5138e-05)
(-0.000830895 0.0571308 0.000266699)
(-0.000584843 0.0793943 0.000343398)
(0.00102089 0.0523534 -0.00171096)
(0.000287434 0.0845486 -0.000417901)
(0.000582927 0.0557185 -0.000557491)
(0.000232953 0.0060302 8.2489e-05)
(0.000194332 0.0154773 5.78712e-05)
(0.0009666 0.0291938 -0.00046955)
(0.00181423 0.0464176 0.00041429)
(0.000150385 0.00407134 -0.000112272)
(-0.000134046 0.00413966 0.00016897)
(0.000218205 0.0132294 -0.000439342)
(-1.75395e-05 0.0117758 -4.08677e-06)
(0.000683463 0.0326011 -0.000510649)
(0.00118064 0.0255772 -0.000419009)
(0.000494049 0.0489653 -0.00109637)
(-0.000379093 0.028814 3.84411e-05)
(-0.000340628 0.0405709 0.000920795)
(-0.000884037 0.0665223 9.2917e-05)
(0.000429941 0.0454438 0.000236996)
(-0.00102617 0.0660177 -0.000594372)
(0.000610149 0.0707301 -0.000551164)
(0.00050525 0.0626109 -0.000526913)
(-0.000110302 0.0899495 -0.000925212)
(-0.000357495 0.0926844 -0.000365049)
(-0.000477857 0.094023 0.00119925)
(0.00157961 0.0887914 -0.00113482)
(-0.00059712 0.0826689 -0.00103915)
(-1.70737e-05 0.0956049 -0.000694559)
(-0.000295316 0.0940158 -0.000246212)
(-0.000276818 0.0947412 -0.000146552)
(0.000992543 0.0775938 4.39255e-05)
(-0.000631524 0.0959947 0.000908416)
(0.000613774 0.00451366 0.000190482)
(-0.000599512 0.00490787 0.00045733)
(0.000284287 0.00381068 -0.00014208)
(0.00167748 0.012956 -2.55168e-05)
(-1.6112e-05 0.0141382 -0.000304393)
(-8.32472e-05 0.0136887 -0.000327135)
(-0.000883213 0.0278155 0.00156568)
(-0.00106123 0.0260995 0.00125882)
(0.000743768 0.0275139 0.00023243)
(-0.00145672 0.0556045 -0.000433382)
(-0.000530362 0.0284712 -0.000584507)
(-0.000801122 0.0563312 0.000316001)
(-0.000403186 0.0543388 0.000146444)
(-0.000483501 0.0717837 8.48177e-05)
(-0.00017297 0.087192 0.000573577)
(-0.00053049 0.0777244 -0.000488007)
(-0.00025891 0.00527101 -0.000367375)
(0.000184591 0.0162961 -0.000113736)
(0.000383641 0.0280966 0.000418973)
(-0.000194476 0.0485715 0.000448329)
(9.51946e-05 0.0678692 0.000539906)
(-0.00099952 0.0592505 -0.00170543)
(0.000102698 0.0923353 -0.00144071)
(0.00149218 0.0602872 0.00032456)
(0.000155346 0.00488243 5.31246e-05)
(0.00071638 0.0161329 -0.000257213)
(6.50067e-05 0.0293371 -0.000573426)
(-0.000111176 0.046928 -0.000357624)
(-3.24262e-06 0.00370727 -0.000143417)
(-6.67202e-05 0.00320059 -3.73974e-05)
(0.000318644 0.0164917 -0.000540288)
(0.000341408 0.012441 -0.000387501)
(-0.000203121 0.0131934 0.000375961)
(-8.79405e-05 0.0317948 0.000178222)
(-0.000220837 0.0512746 -7.15716e-05)
(-0.000241686 0.0264913 -0.000931306)
(-0.000297309 0.0691796 -0.0010003)
(0.000321423 0.0598589 0.000459815)
(-0.000764884 0.030533 -0.000755235)
(-0.00151924 0.0360866 0.0014192)
(0.00122592 0.0615994 -0.00116622)
(-0.000111952 0.0649707 -0.000835844)
(-0.00209563 0.0591064 -1.46329e-05)
(-0.000308532 0.0494608 0.000232639)
(5.78918e-05 0.0869405 0.000150557)
(0.00026371 0.0789548 -0.000313949)
(-7.24314e-05 0.0957778 0.000863662)
(-0.000616422 0.0962795 -0.00020747)
(-0.000222469 0.0922411 0.000466847)
(-0.000785285 0.0964901 0.000415927)
(0.000528352 0.086213 -0.00125491)
(0.000760011 0.0957109 -3.65839e-05)
(-0.000307027 0.0949604 -0.00031569)
(0.00053113 0.0956392 -0.000305706)
(-0.000230156 0.0967875 -0.00026119)
(0.000258656 0.0736145 -1.20938e-05)
(0.00011572 0.0775817 -0.000798655)
(0.000102389 0.0932304 -1.79625e-05)
(0.000785254 0.00381918 -4.42686e-05)
(0.000150685 0.00427234 -0.000284207)
(-0.000141091 0.00386444 -6.57342e-05)
(-0.000742732 0.0151424 0.000261177)
(-0.000747193 0.013175 0.000526518)
(0.000624664 0.0134883 -0.000192794)
(-0.000476579 0.012962 -0.000191214)
(-0.000565348 0.0283415 -0.000406561)
(-0.000585825 0.0303582 0.000531854)
(-8.18369e-05 0.0230875 0.00065207)
(0.000677022 0.0541191 -0.00135468)
(0.000452766 0.0263257 -0.000594842)
(-0.000517681 0.0630788 -0.000867336)
(0.000458066 0.0558408 -0.000898179)
(0.00015107 0.0310309 -0.000398377)
(-0.00011492 0.0592664 0.000170263)
(-0.00128543 0.063047 0.000984677)
(0.00045575 0.0588572 -0.000631109)
(0.000276458 0.086783 0.000404637)
(-0.000240378 0.0935851 -0.00114456)
(0.000158905 0.0932287 0.000351378)
(0.000178757 0.00449946 -0.000109601)
(0.000126977 0.0146139 0.000550039)
(0.00103735 0.0305305 0.000263883)
(0.00108467 0.0505697 0.000740639)
(0.000950003 0.0613738 0.000282223)
(0.000222122 0.0581373 -0.00128655)
(-0.00030697 0.076275 0.000376689)
(0.00107263 0.0569981 -0.000698633)
(9.27212e-05 0.057246 -0.000454153)
(0.000184785 0.00522344 3.36388e-05)
(0.000306363 0.0165563 -0.000683168)
(0.000213076 0.0330718 -0.00055448)
(6.10843e-05 0.00499438 -0.000255935)
(0.00011427 0.00356055 -0.000145782)
(-4.296e-05 0.00371581 0.000221662)
(-0.000144016 0.0154312 0.000225006)
(-0.000160474 0.0124657 -0.000639984)
(-6.5679e-05 0.0146205 -0.000419405)
(0.000407717 0.0515785 -0.000396135)
(-0.000148695 0.0315808 -8.21753e-05)
(0.000338518 0.0301798 -0.000492892)
(-0.00073375 0.0587002 9.98508e-06)
(-0.000238503 0.0488408 -0.000478694)
(-0.000133922 0.0275197 -0.000763952)
(0.000186628 0.0691697 0.000742644)
(-7.24679e-05 0.0711277 -0.000370448)
(4.40231e-05 0.0602994 0.000117051)
(0.000715144 0.0309103 -0.00012845)
(-0.000980666 0.0604631 -0.000386752)
(0.0005452 0.0756598 -0.00106742)
(-2.98454e-05 0.0580858 -0.00127277)
(5.82385e-05 0.0731695 -0.00129866)
(-0.000323341 0.0634529 0.00060428)
(0.000367284 0.0770335 -0.000319995)
(-0.000229045 0.0864431 0.000771976)
(-0.000526268 0.0956239 0.000263961)
(-4.7161e-05 0.0964672 -0.00113165)
(-0.000734965 0.0979469 -0.000424398)
(-6.75728e-05 0.0974236 -7.87521e-05)
(-0.000600247 0.0922079 0.000567388)
(0.00048115 0.0872289 -0.000119356)
(0.00103071 0.0848412 0.000850598)
(0.000379435 0.0906892 0.000349537)
(-5.92215e-05 0.0931665 -0.000283526)
(0.000229355 0.0826498 -7.26778e-05)
(0.000165332 0.0882523 0.000382673)
(0.000242196 0.0748373 0.000497627)
(0.000812786 0.0609786 -0.000842993)
(0.000202569 0.0708454 6.64294e-05)
(-0.000601536 0.0683881 0.000258964)
(0.000201262 0.084971 -0.000521872)
(-0.000342081 0.00477924 -7.84608e-05)
(-0.000300356 0.00370389 0.00013353)
(0.000309912 0.00369527 -6.36546e-05)
(-0.000181819 0.00349282 1.0891e-05)
(-0.000321217 0.0143172 -0.000643704)
(-0.000632449 0.0168078 0.000379114)
(0.000346842 0.0108255 -1.47798e-05)
(0.00037438 0.012467 -0.000418045)
(0.000285291 0.0156126 0.000204195)
(-0.000900817 0.0288396 0.000372147)
(-0.000302511 0.0300183 0.000357982)
(-0.0010407 0.0507051 -0.000386238)
(-0.00100266 0.0277014 0.000503231)
(0.000438359 0.0290154 -0.00130846)
(0.000970658 0.0601218 -0.000971998)
(0.000470258 0.049921 0.000327375)
(0.000401939 0.0533962 -0.000490144)
(-0.000112304 0.0312686 -0.00024548)
(-0.00136704 0.0647563 -0.00052387)
(-0.000906488 0.0731134 -0.00155011)
(-0.00168564 0.0701769 0.000308736)
(0.000869328 0.0561011 3.18529e-05)
(-0.000326413 0.0913684 -0.000257843)
(-0.000796665 0.08674 -0.000611351)
(0.000329851 0.0962635 0.000160263)
(-1.78206e-05 0.00440832 0.000303813)
(0.000782805 0.0150974 0.000147894)
(-0.00024435 0.0334983 0.000246035)
(-0.000258432 0.0308634 0.000166729)
(-0.000222943 0.0522034 -5.0144e-05)
(6.99852e-05 0.0713977 0.000894689)
(-0.000684331 0.0753244 0.000417913)
(-0.000193814 0.0604064 -0.000317413)
(0.000510698 0.0524984 -0.00164788)
(7.92689e-05 0.00599041 -0.000326826)
(0.000549466 0.0180234 -0.000716517)
(0.000163488 0.0282682 0.000312259)
(-5.70671e-05 0.00433449 0.000167949)
(-3.87662e-05 0.00350258 -0.000220155)
(6.9258e-05 0.0042815 -0.00022325)
(7.76897e-05 0.0155449 -4.3446e-05)
(0.000100025 0.0146113 -0.000532392)
(8.76184e-05 0.013667 -0.000180009)
(0.000636104 0.0148061 -0.000322036)
(-0.000265031 0.0573358 0.000603793)
(0.0017276 0.0489986 -0.000695936)
(-0.000546967 0.0511436 -0.0003257)
(-0.00159879 0.0319086 -0.000162985)
(8.27257e-05 0.0301223 -0.00103457)
(-0.00170919 0.0656206 -6.49716e-05)
(8.66822e-06 0.0655489 -0.000175057)
(-0.000376921 0.0583992 -0.0007942)
(-0.000451494 0.0493909 -0.000980697)
(0.000253453 0.0274345 -0.000315285)
(-0.000362674 0.0880252 -0.000544983)
(0.00065313 0.0561137 -0.000347477)
(0.000806484 0.029949 0.000468047)
(-0.000394786 0.0299735 -0.000492692)
(9.52526e-05 0.0803131 -0.0011915)
(-0.00018547 0.0526602 -0.000760017)
(0.00102593 0.0613575 -0.000857897)
(-0.000824315 0.0503156 0.000711636)
(-3.94623e-05 0.0624043 0.000168679)
(0.000330861 0.0841699 -2.44525e-05)
(0.000675229 0.0889291 0.000205672)
(0.000374132 0.0688 0.000428412)
(0.000103845 0.0948315 0.000140565)
(-0.000344591 0.0944873 -0.000273567)
(-0.000290942 0.0964765 -2.62111e-05)
(-0.000291062 0.0984364 6.25635e-06)
(-9.96885e-05 0.0958409 3.93634e-05)
(-0.00077016 0.0940389 -0.00046601)
(0.000169675 0.0890248 6.91182e-06)
(0.000610122 0.0921929 -0.000537189)
(-8.7991e-05 0.0743103 0.000772425)
(0.000223925 0.0895114 0.00071363)
(0.000533986 0.0776036 8.60241e-05)
(0.000232768 0.0653166 3.07722e-05)
(-0.000202002 0.0601797 -0.000896668)
(-0.000172945 0.0542081 -0.000637545)
(4.96782e-05 0.0513074 -0.00073187)
(-0.000760114 0.059704 0.000569824)
(0.000452617 0.0599316 -0.000386877)
(-0.00161617 0.057992 0.000354433)
(0.000427262 0.0741732 0.000127264)
(-5.09117e-05 0.00423304 -0.000234414)
(-0.000326345 0.00555236 9.55799e-05)
(0.000285101 0.00298642 -6.25694e-05)
(0.000113816 0.00347003 -0.000119704)
(0.000160918 0.00479363 0.000190089)
(-0.000575877 0.0140924 0.000151553)
(-0.000312974 0.0157828 0.000459522)
(-0.000756196 0.0134838 0.00018964)
(0.000780969 0.0138722 -0.00032434)
(-0.000207826 0.0157092 -2.64643e-05)
(-0.000664171 0.0287905 -0.000423138)
(-0.00019799 0.029789 -0.00129333)
(-0.000538639 0.0301623 0.000736173)
(0.00018229 0.0294015 -0.000277072)
(0.000923741 0.0645378 -0.000664408)
(-0.000743422 0.0583437 -3.15712e-07)
(-0.00119457 0.0523455 9.23167e-05)
(-0.000387464 0.0272861 -0.000521237)
(-0.00034995 0.0585737 -0.000915138)
(0.000133146 0.0296192 -0.000390671)
(-0.000378649 0.0721127 -0.000255565)
(0.00037082 0.0540463 -0.000356527)
(0.000254217 0.0300719 0.000969087)
(-0.000998303 0.0879127 -0.000808022)
(-0.000407648 0.0625308 -0.000989185)
(-0.000989021 0.0810446 -0.000901269)
(-0.000813611 0.087811 -0.00126909)
(0.000118667 0.0514581 -0.000467636)
(-0.000848204 0.0941761 9.77289e-05)
(-0.000523248 0.0877574 1.39151e-05)
(3.21713e-05 0.0948713 -0.000361485)
(0.000621091 0.095101 1.83044e-05)
(0.000290594 0.00411458 5.27515e-05)
(-0.000104241 0.0177205 0.000243918)
(-0.000353244 0.0151437 -4.65775e-05)
(0.000312532 0.0323748 -0.00119935)
(0.000136523 0.0314434 -5.51839e-05)
(0.000582404 0.0608683 0.000481777)
(0.001263 0.063185 0.000906502)
(-0.000216004 0.0514859 0.000466752)
(0.000236992 0.00608146 -0.00028323)
(0.000405501 0.0147337 -0.000156745)
(-0.000121112 0.0303225 -0.000289738)
(8.21039e-05 0.00448325 -4.73387e-05)
(-2.01487e-05 0.00416257 -0.000224984)
(5.05808e-05 0.00397356 3.88062e-05)
(0.000213101 0.00419827 -0.000162701)
(-0.000787488 0.0156034 -0.000310888)
(-0.000407134 0.0151766 -0.000938261)
(7.70374e-05 0.0137307 -0.000141062)
(0.000571173 0.0141545 -8.5895e-05)
(-0.000410616 0.0139789 -0.000202957)
(-0.000459714 0.0606789 0.000350398)
(-0.00010468 0.0535336 -0.000102795)
(0.000122861 0.0593636 0.000802085)
(-1.88253e-06 0.0548871 0.000409627)
(0.00048663 0.0303592 -0.000525503)
(-0.000643407 0.0314696 -2.74429e-05)
(-0.00162021 0.0562346 -9.2963e-05)
(-0.000944727 0.0285449 -0.000244689)
(-0.000579226 0.0300397 0.000710578)
(-0.00155233 0.08394 -0.00120601)
(-0.000330692 0.0803386 -0.000485741)
(-7.65139e-05 0.0700203 5.00548e-05)
(6.23641e-05 0.0640242 -0.000560233)
(0.0001832 0.0528933 -0.000191779)
(-0.000466808 0.0266761 -0.00030954)
(-0.000117332 0.088705 -0.000351926)
(0.000414949 0.0509551 -1.86339e-05)
(0.000131292 0.0658093 -0.000373934)
(7.59712e-05 0.0272932 -6.71723e-05)
(-0.000189534 0.0597117 -0.000278202)
(8.53492e-05 0.0288219 6.07919e-05)
(0.000341153 0.0284374 0.000441366)
(-7.44092e-05 0.0529124 -0.000921704)
(0.000873452 0.0608975 0.000108744)
(2.28708e-05 0.0702265 -0.000552896)
(-0.000133299 0.0495599 0.000158927)
(-0.00183245 0.04811 0.000345214)
(0.000339603 0.0936399 0.000134699)
(0.000165526 0.0720413 0.000785843)
(-0.000111825 0.0623327 0.000121281)
(-0.000744319 0.0601444 -0.000409315)
(0.000183906 0.0725701 0.000461976)
(-2.64002e-05 0.0941556 0.000309124)
(-0.00039625 0.0967045 -0.000261864)
(0.000216758 0.0810458 -0.000502171)
(0.000297964 0.0832255 -0.00039282)
(-0.000235506 0.0659081 -0.000880997)
(-0.000222364 0.0684003 -4.07402e-05)
(-0.000260905 0.0674985 0.00101036)
(0.00109135 0.0709914 0.00115232)
(0.000206889 0.0734311 0.00106819)
(1.37086e-05 0.0669188 -8.77915e-05)
(-0.000563034 0.0629001 6.69585e-05)
(0.00049552 0.0480853 0.000283659)
(-0.000514456 0.0473901 -0.00113199)
(3.42855e-05 0.0515309 -0.000691479)
(-0.000469874 0.0311004 5.26431e-05)
(-0.000952206 0.0465751 -0.000644688)
(-0.000592029 0.0446358 -0.00212862)
(-0.000675517 0.0551092 -0.00087611)
(0.000298883 0.0624546 -0.00143896)
(-0.000175556 0.00396483 7.25714e-05)
(-4.17714e-05 0.00481024 0.000180696)
(-0.000293836 0.00392771 4.62414e-05)
(0.000359027 0.0040542 3.92223e-05)
(-0.000179864 0.00471123 -9.29973e-05)
(-0.000447359 0.0145517 -0.000753992)
(-0.000325516 0.013976 -0.000844157)
(-0.000156413 0.0166525 0.000640061)
(-0.000219484 0.0159488 -3.30168e-05)
(-9.3454e-05 0.0126523 -0.000280404)
(7.45805e-05 0.0142528 -7.25152e-05)
(-0.000160131 0.014257 0.000569309)
(-0.000755235 0.0300299 -0.000148219)
(0.00118132 0.0573116 -0.00100517)
(0.000226 0.0309266 -3.56647e-06)
(-0.000595683 0.0284871 -0.000478634)
(-0.000890981 0.0289411 -0.000228744)
(5.08671e-05 0.0638567 -0.000127897)
(0.000722815 0.0686772 0.000576754)
(-0.000404589 0.058477 -0.000483087)
(-0.000205226 0.0537099 -0.000613779)
(-0.000733294 0.0280006 0.000540324)
(-0.000467867 0.0296907 0.000476897)
(-0.000114586 0.0587802 -0.000199608)
(0.000339768 0.0545384 0.000202509)
(-0.0001875 0.0290579 -0.000526341)
(-0.00115548 0.0863997 -0.000186618)
(-0.00113146 0.076067 0.000255117)
(-0.000514998 0.0581352 -0.000247453)
(-0.000179001 0.0691137 8.12185e-05)
(-0.000573537 0.0931705 -0.000827138)
(0.00029312 0.0499087 -0.000507958)
(0.000436754 0.0730588 0.00100693)
(0.000246271 0.0985593 -0.000117542)
(0.000365083 0.0901451 -3.42142e-05)
(-0.000139149 0.00559324 0.000238705)
(-0.000206786 0.00443217 -0.000118904)
(0.000212891 0.0163643 -0.000685981)
(0.000225 0.0154813 0.000175694)
(0.000214047 0.0303596 -0.000568829)
(-7.61589e-05 0.0299224 0.000284137)
(0.00184155 0.0462556 1.96414e-05)
(0.000235984 0.00479265 -0.00010119)
(-0.000144636 0.0169305 -0.000735384)
(0.000114493 0.0281189 -8.37415e-05)
(-0.000269552 0.00447179 -0.000189604)
(-0.00024372 0.00455548 -0.000401398)
(-3.85232e-05 0.00406894 -6.21829e-05)
(0.000245373 0.00375247 -0.000161019)
(-0.000236115 0.00382793 2.28868e-05)
(0.000341515 0.0150492 -0.000551943)
(0.0001521 0.0154819 0.000157774)
(-0.000556924 0.0136321 3.19837e-05)
(-0.000504803 0.0141118 5.65574e-05)
(-0.00020358 0.0124443 -0.000116066)
(-0.000201149 0.0122007 -0.000209217)
(-3.19704e-05 0.0136275 8.3696e-05)
(0.000129003 0.0133986 0.000407961)
(9.03051e-05 0.0657642 0.000309526)
(-0.00131525 0.066381 -0.00082731)
(0.00100018 0.0503804 -0.000418923)
(-5.14538e-06 0.0551667 -0.000400183)
(-5.09064e-05 0.0286838 -0.000460564)
(-0.0006513 0.0314533 0.000167099)
(-0.000870525 0.0679349 -0.00117614)
(-0.000360403 0.0569974 0.00132089)
(-0.000782291 0.0576731 -0.000896289)
(-0.000270904 0.0294789 -0.000706594)
(0.000449959 0.030416 -0.000679595)
(-0.001726 0.0830945 -0.000873083)
(-0.000267419 0.0814102 -0.000345753)
(4.00502e-07 0.0699386 -0.000271643)
(0.000167332 0.0626351 0.000208016)
(3.31257e-05 0.0577901 0.000397278)
(0.000961424 0.0274155 -6.30648e-05)
(-7.90069e-05 0.0866978 -0.000700101)
(0.000310746 0.0561441 -0.000254205)
(0.000130156 0.0646454 -0.00060475)
(0.000334789 0.0471795 -0.000297712)
(-0.000496601 0.0285391 -8.43337e-05)
(0.000656502 0.0576475 0.000126655)
(-0.000242875 0.0635752 -0.000559119)
(-0.000297178 0.0486618 -0.000289436)
(-0.000110035 0.0292213 0.000254253)
(-0.000436659 0.0297666 -8.3514e-05)
(-0.00031692 0.0666233 0.00051)
(-0.000768733 0.0446049 0.000676909)
(-0.00067563 0.0501296 -0.000587342)
(0.000442596 0.0900543 0.000712924)
(-0.000120837 0.0621945 0.000369893)
(-0.000344041 0.066568 -0.000539362)
(-0.000835244 0.0514564 -0.000115403)
(-0.000949865 0.0518442 -0.00029565)
(8.31587e-06 0.0517847 -6.30069e-05)
(-0.000349343 0.0622053 -0.000632908)
(8.21167e-05 0.0761514 0.00115252)
(-2.93256e-05 0.0926408 0.000157609)
(4.62527e-05 0.0950962 -0.000222374)
(0.000137978 0.0851753 -0.000433875)
(0.000754426 0.0876214 -0.000457655)
(-0.000924798 0.0513617 -0.00024869)
(0.000172921 0.0570184 -0.000364847)
(-0.000572574 0.0596108 -0.000439976)
(-0.000189136 0.0543997 0.000149122)
(-0.000324037 0.0609334 -0.000208355)
(-0.000313655 0.0589377 -0.000335067)
(-0.000338663 0.0600431 0.00013057)
(-4.01051e-05 0.0507881 0.00108743)
(-0.000740625 0.0465055 -0.000430067)
(-0.000324019 0.0582667 0.000286231)
(-8.65318e-05 0.0517905 -0.000405435)
(-3.04286e-05 0.0305454 -0.000666278)
(-0.0011464 0.0536179 -8.35568e-05)
(-0.000471703 0.0307707 0.000280607)
(-0.000359972 0.0172238 1.15824e-05)
(-0.000250462 0.0284825 -0.000380833)
(-0.000849955 0.0275228 -0.00162221)
(-2.08875e-06 0.0481614 -0.000329726)
(-0.000251478 0.00416014 -0.000466034)
(-0.000169946 0.00392959 -0.000301776)
(3.10478e-05 0.00538347 0.000239955)
(-0.000128989 0.00523407 -3.0677e-05)
(7.07779e-05 0.00351457 -0.000109281)
(-7.68666e-05 0.00415425 -6.75531e-05)
(-0.00015016 0.00380818 0.000175463)
(-0.00060951 0.0155508 5.14271e-06)
(0.000135364 0.0147792 0.000445825)
(-0.000399085 0.0152972 -0.000575701)
(-0.00086761 0.0157905 -0.000304242)
(-0.000194644 0.0132466 0.000390889)
(-0.000526335 0.0138115 0.000161802)
(-0.000392027 0.0130004 -0.000397374)
(0.000113381 0.0286829 -0.000833366)
(7.62447e-05 0.0282661 -0.000173296)
(0.00110088 0.0530104 0.000115364)
(0.000748746 0.0308205 -0.000131494)
(-0.00147413 0.0309548 0.000158812)
(6.3445e-05 0.0283976 -0.00041896)
(-0.000122136 0.0629346 -0.000537858)
(0.000137698 0.0668479 0.00059502)
(0.000577959 0.0580985 -0.000381298)
(-0.00156627 0.048944 0.000581327)
(-8.38325e-05 0.0526921 0.000503155)
(4.94777e-05 0.025811 -0.000135956)
(0.000392926 0.0288086 -0.00099178)
(0.000726976 0.0591456 0.000188967)
(-5.02464e-07 0.0527564 -0.000422931)
(0.00059855 0.0309907 -0.00112171)
(-0.00113537 0.0788153 0.000641064)
(-0.000328253 0.0694357 -3.52893e-05)
(-0.0010649 0.0775589 -0.000445708)
(0.00116207 0.0600788 0.000947592)
(0.000161251 0.0661953 0.000241723)
(0.00030428 0.0930912 -0.000854421)
(0.000943881 0.0571639 -0.000974742)
(0.000301892 0.0976348 0.000497028)
(0.000348381 0.0938974 -0.000997055)
(0.00026884 0.0916106 1.23756e-06)
(0.000234366 0.0910393 -0.000698548)
(6.9592e-05 0.00442238 -0.000180235)
(0.000160733 0.00445107 6.74856e-05)
(-3.02961e-06 0.0145012 0.000109291)
(-0.000143131 0.0145462 0.000133834)
(0.000734522 0.0276312 -0.00117484)
(0.000825336 0.0453775 -5.67259e-05)
(-0.000283833 0.0293288 9.81855e-06)
(-0.000145849 0.00578987 -0.00034543)
(4.15914e-05 0.014493 -0.000208144)
(9.75605e-05 0.00430381 -0.000227215)
(0.000191614 0.00438721 0.000142241)
(-0.000145575 0.00378529 0.000160086)
(-0.000197541 0.00378667 -9.03258e-05)
(-8.17178e-05 0.00339024 -3.2465e-05)
(-0.000161067 0.00319423 -5.05436e-05)
(1.68057e-05 0.00383259 9.84863e-05)
(3.36758e-05 0.00374975 0.000162733)
(-0.00013572 0.0138105 -0.00023277)
(-0.000207542 0.015415 0.000287204)
(-2.75868e-05 0.0144926 -0.000580615)
(0.000196767 0.0154746 -0.000510776)
(0.000539436 0.0132152 0.000114303)
(-0.000532763 0.0135057 0.000128116)
(-0.000183513 0.0146679 0.000175942)
(-0.000100737 0.0140178 -0.000174066)
(-0.000348919 0.0737441 -0.0014508)
(0.000957327 0.0590262 0.000372787)
(0.000602159 0.0594176 -0.000274417)
(0.0008783 0.0526492 -0.000159786)
(0.000464393 0.0302741 -0.000377846)
(-0.000938156 0.053883 -0.00063672)
(0.000277636 0.0315183 -5.10561e-06)
(-0.000783476 0.0733856 -0.000432906)
(-6.75781e-05 0.0544265 0.000516317)
(6.35701e-05 0.0590992 0.001305)
(2.55521e-05 0.0664478 -0.000409222)
(8.19209e-05 0.0557486 -0.0010032)
(-0.000299965 0.0293256 0.000213444)
(-0.000668967 0.0297495 0.000202806)
(-0.000155053 0.0285801 0.00021448)
(-0.000145912 0.0894475 -0.00104912)
(-0.00010049 0.0843085 -0.000461011)
(-0.000549422 0.0793418 -6.6002e-05)
(0.0014797 0.0537312 0.00039882)
(-0.000630388 0.0276034 -0.000128651)
(-0.000236972 0.0865624 -0.000480307)
(-0.000244152 0.0903833 -0.00134509)
(0.000177829 0.0726619 -0.000121259)
(-0.000658925 0.0743242 -0.000775777)
(-0.000550603 0.0659747 -0.000815286)
(-0.000416004 0.0571944 -0.000938327)
(-0.000234427 0.0458326 -0.000380675)
(-0.000444978 0.0301406 -0.000732286)
(0.000108573 0.0605222 0.000673878)
(-0.00146049 0.0730284 -7.80963e-05)
(-0.0014407 0.0654316 -0.000467059)
(-0.00178972 0.0566224 0.000297389)
(-4.89619e-05 0.0298189 0.000116126)
(-0.00156352 0.0582572 0.000159334)
(-0.000580089 0.0306699 2.03804e-05)
(-0.000891552 0.0591967 0.000712681)
(0.000675284 0.0702942 0.00116107)
(-0.000185262 0.0947071 0.000508014)
(-0.00043728 0.0554036 -3.0854e-05)
(-0.000347038 0.0535208 -0.000177527)
(0.000102951 0.0617821 -0.000782941)
(-0.000192088 0.0606531 -0.000554231)
(-0.000250621 0.0562918 -0.00105914)
(-0.00031703 0.0540032 -0.000459846)
(-0.000224092 0.0690526 0.00141615)
(-0.000453001 0.0822955 0.00116619)
(-0.000120397 0.0815627 0.00143512)
(5.65986e-05 0.0881458 -0.00049487)
(-0.000229472 0.0755097 -0.000175727)
(4.76804e-05 0.0698196 -0.000354391)
(-0.000944261 0.0296075 -0.000319225)
(0.000330616 0.0293033 0.000333717)
(-0.00071822 0.0327147 -0.000394762)
(8.3639e-05 0.0292189 0.000352444)
(-7.94978e-05 0.0323861 -0.000189226)
(0.000772896 0.059008 0.000298413)
(-0.00108252 0.0592312 -0.000259974)
(0.000308122 0.0287021 0.000172254)
(-0.000748562 0.0304356 -0.000845173)
(0.000180494 0.0305182 0.000439699)
(5.81802e-05 0.0310785 0.000426925)
(-0.000162573 0.0168728 -0.000742795)
(-0.000802108 0.0306348 -0.000103134)
(-0.000600758 0.0169244 0.000321929)
(-0.000137573 0.00555548 0.000178616)
(-7.87421e-05 0.0140443 -9.39815e-05)
(-0.000460342 0.0138058 -0.000626433)
(-0.000185632 0.0274519 0.00101793)
(-0.000260221 0.00461051 9.56319e-05)
(0.000131332 0.00411278 0.000324167)
(-0.000104471 0.00475007 -0.000281502)
(-0.000312312 0.00503737 -0.000206413)
(-1.67626e-05 0.00359812 0.000137352)
(-0.000255343 0.00374306 5.41933e-06)
(-0.000189312 0.00342129 -0.000123027)
(4.18713e-05 0.0141799 -0.000535366)
(0.000302255 0.0138362 -0.000195613)
(0.000477728 0.0147117 -0.000114896)
(-0.000940474 0.0164853 8.0064e-05)
(-0.000245169 0.0148376 -0.000298383)
(0.000454363 0.0119523 -0.000285603)
(0.000212792 0.0132804 -0.000634497)
(0.000379839 0.0149852 -0.000237517)
(-0.000336553 0.0517186 0.000325983)
(-0.000772017 0.0302943 -0.000196073)
(-0.000272876 0.0320916 -0.00037621)
(0.000568831 0.0545295 0.000167559)
(-0.00109517 0.0279064 0.00104148)
(0.000642435 0.0329574 -0.000435447)
(-0.0011878 0.0588334 -0.000150681)
(-0.00072943 0.0558452 0.000109682)
(-0.000394533 0.0594773 -0.000498394)
(9.6998e-05 0.0580124 -0.000515937)
(0.000604957 0.0520217 -0.00113082)
(-0.000763906 0.0280536 0.000651136)
(-3.66057e-05 0.052862 -0.00108744)
(-0.000250037 0.0293022 0.000789389)
(0.000809274 0.0654162 -0.0004923)
(-0.0010873 0.0649325 -0.00073515)
(0.0010243 0.0649466 -0.000841206)
(-0.00057203 0.0313498 -0.000412754)
(-0.000805366 0.0700134 3.09987e-05)
(0.00105713 0.0584892 0.000551415)
(0.000374493 0.0931452 -0.000577614)
(-0.000337898 0.0927908 0.000132652)
(-0.00021074 0.0798702 0.000264344)
(-0.00012981 0.0912534 0.000556338)
(-0.000558944 0.0889562 8.89762e-05)
(0.000609439 0.084294 -0.000745323)
(1.51564e-05 0.00405347 0.000120877)
(-0.000163537 0.00415535 4.33698e-05)
(0.000345779 0.0132262 -0.000297615)
(-0.000439435 0.0143966 -0.000346354)
(8.94374e-05 0.0277027 0.000886552)
(0.000108696 0.0440415 0.000118675)
(2.27863e-05 0.00433806 -0.00012778)
(-9.60882e-05 0.00388735 -1.60902e-05)
(-8.53757e-05 0.00449195 0.000116979)
(3.62405e-05 0.00417758 -0.000226019)
(7.84425e-05 0.00468294 -0.000219842)
(0.000168858 0.00377915 0.000109759)
(-0.000206638 0.00383381 0.000152637)
(-8.10293e-05 0.00438806 9.70089e-05)
(4.03648e-05 0.00395643 -0.000109721)
(0.000293879 0.0151512 -0.00015447)
(0.000508657 0.0155248 0.000275353)
(-0.000450407 0.0145169 8.79036e-05)
(-0.000237817 0.0146417 0.000227971)
(-8.26879e-05 0.0139464 0.000190116)
(-0.000418098 0.0132414 0.000115594)
(-0.000191717 0.0152281 -0.000238006)
(-8.30423e-05 0.0147039 8.87014e-06)
(-9.40334e-05 0.0149274 0.000169735)
(-0.00088703 0.0741873 -0.00042775)
(0.000571014 0.0614837 -0.000471211)
(0.000564052 0.056371 -0.000602527)
(-0.000285797 0.0451216 -0.00138244)
(0.000326877 0.027922 -0.000457446)
(-0.000594195 0.0669817 -0.000322403)
(-0.000229888 0.0565872 -0.000382169)
(-0.000658428 0.0319117 0.000532395)
(0.000287665 0.0642507 -0.000275142)
(-0.000339095 0.0900873 -0.000378424)
(-0.000388592 0.054496 0.00142398)
(-0.000280038 0.0580151 0.00196393)
(0.000804853 0.0632904 -0.000828032)
(0.00120235 0.0568792 -0.000328033)
(-0.000167083 0.0297234 -0.000230703)
(0.000767317 0.0571566 -0.000273823)
(0.000486571 0.0266539 -0.000392325)
(0.000102996 0.0300519 -0.000925279)
(3.07359e-05 0.0932107 -0.000685621)
(2.13325e-05 0.0899478 -0.000660201)
(-0.000329209 0.0858884 -0.00082028)
(-0.000462161 0.0831355 0.000411784)
(0.00092752 0.0578411 4.42729e-05)
(-0.000342031 0.054885 -0.000548742)
(0.000989339 0.0282335 0.00037219)
(0.000173683 0.090634 -0.000828572)
(0.000145834 0.0932912 -0.000895353)
(-0.00110942 0.0865776 -0.00117041)
(-0.000770599 0.0740707 -0.00068466)
(-0.000547383 0.0782588 -0.000186522)
(-0.00139438 0.0771469 -0.000279157)
(-0.0013523 0.0703872 -0.00111865)
(-0.0016016 0.0612069 -0.00102144)
(-0.00116418 0.0570532 -0.00112585)
(0.000267883 0.029961 0.00152643)