# Region type : patch face1
# Faces  :    138
# Area   :    9.242436e-05
# Time        	sum(phi)
0             	-1.750000e-04
29            	-1.750000e-04
