# vtk DataFile Version 2.0
DGS printing
ASCII
DATASET UNSTRUCTURED_GRID
POINTS  144  floats
21.26390 20.90860 20.09592 21.25258 20.90860 20.10440 21.24410 20.90860 20.09308 
21.25542 20.90860 20.08460 21.26390 19.90860 20.09592 21.25258 19.90860 20.10440 
21.24410 19.90860 20.09308 21.25542 19.90860 20.08460 21.25999 20.90860 20.10250 
21.24600 20.90860 20.10049 21.24801 20.90860 20.08650 21.26200 20.90860 20.08851 
21.25999 19.90860 20.10250 21.24600 19.90860 20.10049 21.24801 19.90860 20.08650 
21.26200 19.90860 20.08851 21.26390 20.40860 20.09592 21.25258 20.40860 20.10440 
21.24410 20.40860 20.09308 21.25542 20.40860 20.08460 21.26200 20.40860 20.08851 
21.24600 20.40860 20.10049 21.25999 20.40860 20.10250 21.24801 20.40860 20.08650 
21.28142 21.90860 20.10668 21.24182 21.90860 20.12192 21.22658 21.90860 20.08232 
21.26618 21.90860 20.06708 21.28142 20.90860 20.10668 21.24182 20.90860 20.12192 
21.22658 20.90860 20.08232 21.26618 20.90860 20.06708 21.26477 21.90860 20.12250 
21.22600 21.90860 20.10527 21.24323 21.90860 20.06650 21.28200 21.90860 20.08373 
21.26477 20.90860 20.12250 21.22600 20.90860 20.10527 21.24323 20.90860 20.06650 
21.28200 20.90860 20.08373 21.28142 21.40860 20.10668 21.24182 21.40860 20.12192 
21.22658 21.40860 20.08232 21.26618 21.40860 20.06708 21.28200 21.40860 20.08373 
21.22600 21.40860 20.10527 21.26477 21.40860 20.12250 21.24323 21.40860 20.06650 
21.28294 22.90860 20.13527 21.29477 22.90860 20.06556 21.22506 22.90860 20.05373 
21.21323 22.90860 20.12344 21.28294 23.90860 20.13527 21.29477 23.90860 20.06556 
21.22506 23.90860 20.05373 21.21323 23.90860 20.12344 21.30330 22.90860 20.10286 
21.26236 22.90860 20.04520 21.20470 22.90860 20.08614 21.24564 22.90860 20.14380 
21.30330 23.90860 20.10286 21.26236 23.90860 20.04520 21.20470 23.90860 20.08614 
21.24564 23.90860 20.14380 21.28294 23.40860 20.13527 21.29477 23.40860 20.06556 
21.22506 23.40860 20.05373 21.21323 23.40860 20.12344 21.24564 23.40860 20.14380 
21.26236 23.40860 20.04520 21.30330 23.40860 20.10286 21.20470 23.40860 20.08614 
21.28569 23.90860 20.13318 21.29268 23.90860 20.06281 21.22231 23.90860 20.05582 
21.21532 23.90860 20.12619 21.28569 26.90860 20.13318 21.29268 26.90860 20.06281 
21.22231 26.90860 20.05582 21.21532 26.90860 20.12619 21.30375 23.90860 20.09944 
21.25894 23.90860 20.04475 21.20425 23.90860 20.08956 21.24906 23.90860 20.14425 
21.30375 26.90860 20.09944 21.25894 26.90860 20.04475 21.20425 26.90860 20.08956 
21.24906 26.90860 20.14425 21.28569 25.40860 20.13318 21.29268 25.40860 20.06281 
21.22231 25.40860 20.05582 21.21532 25.40860 20.12619 21.24906 25.40860 20.14425 
21.25894 25.40860 20.04475 21.30375 25.40860 20.09944 21.20425 25.40860 20.08956 
21.29201 27.22820 20.12698 21.28648 27.22820 20.05649 21.21599 27.22820 20.06202 
21.22152 27.22820 20.13251 21.29201 28.22820 20.12698 21.28648 28.22820 20.05649 
21.21599 28.22820 20.06202 21.22152 28.22820 20.13251 21.30385 27.22820 20.09059 
21.25009 27.22820 20.04465 21.20415 27.22820 20.09841 21.25791 27.22820 20.14435 
21.30385 28.22820 20.09059 21.25009 28.22820 20.04465 21.20415 28.22820 20.09841 
21.25791 28.22820 20.14435 21.29201 27.72820 20.12698 21.28648 27.72820 20.05649 
21.21599 27.72820 20.06202 21.22152 27.72820 20.13251 21.25791 27.72820 20.14435 
21.25009 27.72820 20.04465 21.30385 27.72820 20.09059 21.20415 27.72820 20.09841 
21.29202 28.53440 20.12697 21.28647 28.53440 20.05648 21.21598 28.53440 20.06203 
21.22153 28.53440 20.13252 21.29202 29.53440 20.12697 21.28647 29.53440 20.05648 
21.21598 29.53440 20.06203 21.22153 29.53440 20.13252 21.30385 28.53440 20.09057 
21.25007 28.53440 20.04465 21.20415 28.53440 20.09843 21.25793 28.53440 20.14435 
21.30385 29.53440 20.09057 21.25007 29.53440 20.04465 21.20415 29.53440 20.09843 
21.25793 29.53440 20.14435 21.29202 29.03440 20.12697 21.28647 29.03440 20.05648 
21.21598 29.03440 20.06203 21.22153 29.03440 20.13252 21.25793 29.03440 20.14435 
21.25007 29.03440 20.04465 21.30385 29.03440 20.09057 21.20415 29.03440 20.09843 
CELLS  6   150
24 0 1 2 3 4 5 6 7 8 9 10 11 12 13 14 15 16 17 18 19 20 21 22 23
24 24 25 26 27 28 29 30 31 32 33 34 35 36 37 38 39 40 41 42 43 44 45 46 47
24 48 49 50 51 52 53 54 55 56 57 58 59 60 61 62 63 64 65 66 67 68 69 70 71
24 72 73 74 75 76 77 78 79 80 81 82 83 84 85 86 87 88 89 90 91 92 93 94 95
24 96 97 98 99 100 101 102 103 104 105 106 107 108 109 110 111 112 113 114 115 116 117 118 119
24 120 121 122 123 124 125 126 127 128 129 130 131 132 133 134 135 136 137 138 139 140 141 142 143
CELL_TYPES  6 
33
33
33
33
33
33
CELL_DATA  6 
SCALARS average_vol_activity_bq_m3 double 1 
LOOKUP_TABLE default
98.49695
84.88244
2.00142
0.00000
0.00000
0.00000
SCALARS total_activity_bq double 1 
LOOKUP_TABLE default
0.03094
0.24000
0.01572
0.00000
0.00000
0.00000
SCALARS mc_error double 1 
LOOKUP_TABLE default
0.00000
0.00000
0.00804
0.00000
0.00000
0.00000
