# vtk DataFile Version 2.0
DGS printing
ASCII
DATASET UNSTRUCTURED_GRID
POINTS  144  floats
21.26400 20.90860 20.09462 21.25388 20.90860 20.10450 21.24400 20.90860 20.09438 
21.25412 20.90860 20.08450 21.26400 19.90860 20.09462 21.25388 19.90860 20.10450 
21.24400 19.90860 20.09438 21.25412 19.90860 20.08450 21.26098 20.90860 20.10166 
21.24684 20.90860 20.10148 21.24702 20.90860 20.08734 21.26116 20.90860 20.08752 
21.26098 19.90860 20.10166 21.24684 19.90860 20.10148 21.24702 19.90860 20.08734 
21.26116 19.90860 20.08752 21.26400 20.40860 20.09462 21.25388 20.40860 20.10450 
21.24400 20.40860 20.09438 21.25412 20.40860 20.08450 21.26116 20.40860 20.08752 
21.24684 20.40860 20.10148 21.26098 20.40860 20.10166 21.24702 20.40860 20.08734 
21.27103 21.90860 20.11920 21.22930 21.90860 20.11153 21.23697 21.90860 20.06980 
21.27870 21.90860 20.07747 21.27103 20.90860 20.11920 21.22930 20.90860 20.11153 
21.23697 20.90860 20.06980 21.27870 20.90860 20.07747 21.24858 21.90860 20.12401 
21.22449 21.90860 20.08908 21.25942 21.90860 20.06499 21.28351 21.90860 20.09992 
21.24858 20.90860 20.12401 21.22449 20.90860 20.08908 21.25942 20.90860 20.06499 
21.28351 20.90860 20.09992 21.27103 21.40860 20.11920 21.22930 21.40860 20.11153 
21.23697 21.40860 20.06980 21.27870 21.40860 20.07747 21.28351 21.40860 20.09992 
21.22449 21.40860 20.08908 21.24858 21.40860 20.12401 21.25942 21.40860 20.06499 
21.27121 22.90860 20.14144 21.30094 22.90860 20.07729 21.23679 22.90860 20.04756 
21.20706 22.90860 20.11171 21.27121 23.90860 20.14144 21.30094 23.90860 20.07729 
21.23679 23.90860 20.04756 21.20706 23.90860 20.11171 21.29936 22.90860 20.11552 
21.27502 22.90860 20.04914 21.20864 22.90860 20.07348 21.23298 22.90860 20.13986 
21.29936 23.90860 20.11552 21.27502 23.90860 20.04914 21.20864 23.90860 20.07348 
21.23298 23.90860 20.13986 21.27121 23.40860 20.14144 21.30094 23.40860 20.07729 
21.23679 23.40860 20.04756 21.20706 23.40860 20.11171 21.23298 23.40860 20.13986 
21.27502 23.40860 20.04914 21.29936 23.40860 20.11552 21.20864 23.40860 20.07348 
21.29901 23.90860 20.11627 21.27577 23.90860 20.04949 21.20899 23.90860 20.07273 
21.23223 23.90860 20.13951 21.29901 26.90860 20.11627 21.27577 26.90860 20.04949 
21.20899 26.90860 20.07273 21.23223 26.90860 20.13951 21.30122 23.90860 20.07807 
21.23757 23.90860 20.04728 21.20678 23.90860 20.11093 21.27043 23.90860 20.14172 
21.30122 26.90860 20.07807 21.23757 26.90860 20.04728 21.20678 26.90860 20.11093 
21.27043 26.90860 20.14172 21.29901 25.40860 20.11627 21.27577 25.40860 20.04949 
21.20899 25.40860 20.07273 21.23223 25.40860 20.13951 21.27043 25.40860 20.14172 
21.23757 25.40860 20.04728 21.30122 25.40860 20.07807 21.20678 25.40860 20.11093 
21.28935 27.22820 20.12986 21.28936 27.22820 20.05915 21.21865 27.22820 20.05914 
21.21864 27.22820 20.12985 21.28935 28.22820 20.12986 21.28936 28.22820 20.05915 
21.21865 28.22820 20.05914 21.21864 28.22820 20.12985 21.30400 27.22820 20.09450 
21.25400 27.22820 20.04450 21.20400 27.22820 20.09450 21.25400 27.22820 20.14450 
21.30400 28.22820 20.09450 21.25400 28.22820 20.04450 21.20400 28.22820 20.09450 
21.25400 28.22820 20.14450 21.28935 27.72820 20.12986 21.28936 27.72820 20.05915 
21.21865 27.72820 20.05914 21.21864 27.72820 20.12985 21.25400 27.72820 20.14450 
21.25400 27.72820 20.04450 21.30400 27.72820 20.09450 21.20400 27.72820 20.09450 
21.29246 28.53440 20.12645 21.28595 28.53440 20.05604 21.21554 28.53440 20.06255 
21.22205 28.53440 20.13296 21.29246 29.53440 20.12645 21.28595 29.53440 20.05604 
21.21554 29.53440 20.06255 21.22205 29.53440 20.13296 21.30379 28.53440 20.08989 
21.24939 28.53440 20.04471 21.20421 28.53440 20.09911 21.25861 28.53440 20.14429 
21.30379 29.53440 20.08989 21.24939 29.53440 20.04471 21.20421 29.53440 20.09911 
21.25861 29.53440 20.14429 21.29246 29.03440 20.12645 21.28595 29.03440 20.05604 
21.21554 29.03440 20.06255 21.22205 29.03440 20.13296 21.25861 29.03440 20.14429 
21.24939 29.03440 20.04471 21.30379 29.03440 20.08989 21.20421 29.03440 20.09911 
CELLS  6   150
24 0 1 2 3 4 5 6 7 8 9 10 11 12 13 14 15 16 17 18 19 20 21 22 23
24 24 25 26 27 28 29 30 31 32 33 34 35 36 37 38 39 40 41 42 43 44 45 46 47
24 48 49 50 51 52 53 54 55 56 57 58 59 60 61 62 63 64 65 66 67 68 69 70 71
24 72 73 74 75 76 77 78 79 80 81 82 83 84 85 86 87 88 89 90 91 92 93 94 95
24 96 97 98 99 100 101 102 103 104 105 106 107 108 109 110 111 112 113 114 115 116 117 118 119
24 120 121 122 123 124 125 126 127 128 129 130 131 132 133 134 135 136 137 138 139 140 141 142 143
CELL_TYPES  6 
33
33
33
33
33
33
CELL_DATA  6 
SCALARS average_vol_activity_bq_m3 double 1 
LOOKUP_TABLE default
98.49695
84.88244
43.03460
11.32804
2.06556
0.96681
SCALARS total_activity_bq double 1 
LOOKUP_TABLE default
0.03094
0.24000
0.33799
0.26691
0.01622
0.00759
SCALARS mc_error double 1 
LOOKUP_TABLE default
0.00000
0.00000
0.00000
0.00000
0.00000
0.00000
