# vtk DataFile Version 2.0
DGS printing
ASCII
DATASET UNSTRUCTURED_GRID
POINTS  144  floats
21.25511 20.90860 20.10444 21.24406 20.90860 20.09561 21.25289 20.90860 20.08456 
21.26394 20.90860 20.09339 21.25511 19.90860 20.10444 21.24406 19.90860 20.09561 
21.25289 19.90860 20.08456 21.26394 19.90860 20.09339 21.24776 20.90860 20.10231 
21.24619 20.90860 20.08826 21.26024 20.90860 20.08669 21.26181 20.90860 20.10074 
21.24776 19.90860 20.10231 21.24619 19.90860 20.08826 21.26024 19.90860 20.08669 
21.26181 19.90860 20.10074 21.25511 20.40860 20.10444 21.24406 20.40860 20.09561 
21.25289 20.40860 20.08456 21.26394 20.40860 20.09339 21.26181 20.40860 20.10074 
21.24619 20.40860 20.08826 21.24776 20.40860 20.10231 21.26024 20.40860 20.08669 
21.28298 21.90860 20.10225 21.24625 21.90860 20.12348 21.22502 21.90860 20.08675 
21.26175 21.90860 20.06552 21.28298 20.90860 20.10225 21.24625 20.90860 20.12348 
21.22502 20.90860 20.08675 21.26175 20.90860 20.06552 21.26901 21.90860 20.12047 
21.22803 21.90860 20.10951 21.23899 21.90860 20.06853 21.27997 21.90860 20.07949 
21.26901 20.90860 20.12047 21.22803 20.90860 20.10951 21.23899 20.90860 20.06853 
21.27997 20.90860 20.07949 21.28298 21.40860 20.10225 21.24625 21.40860 20.12348 
21.22502 21.40860 20.08675 21.26175 21.40860 20.06552 21.27997 21.40860 20.07949 
21.22803 21.40860 20.10951 21.26901 21.40860 20.12047 21.23899 21.40860 20.06853 
21.29755 22.90860 20.11907 21.27857 22.90860 20.05095 21.21045 22.90860 20.06993 
21.22943 22.90860 20.13805 21.29755 23.90860 20.11907 21.27857 23.90860 20.05095 
21.21045 23.90860 20.06993 21.22943 23.90860 20.13805 21.30217 22.90860 20.08108 
21.24058 22.90860 20.04633 21.20583 22.90860 20.10792 21.26742 22.90860 20.14267 
21.30217 23.90860 20.08108 21.24058 23.90860 20.04633 21.20583 23.90860 20.10792 
21.26742 23.90860 20.14267 21.29755 23.40860 20.11907 21.27857 23.40860 20.05095 
21.21045 23.40860 20.06993 21.22943 23.40860 20.13805 21.26742 23.40860 20.14267 
21.24058 23.40860 20.04633 21.30217 23.40860 20.08108 21.20583 23.40860 20.10792 
21.26366 23.90860 20.14356 21.30306 23.90860 20.08484 21.24434 23.90860 20.04544 
21.20494 23.90860 20.10416 21.26366 26.90860 20.14356 21.30306 26.90860 20.08484 
21.24434 26.90860 20.04544 21.20494 26.90860 20.10416 21.29552 23.90860 20.12236 
21.28186 23.90860 20.05298 21.21248 23.90860 20.06664 21.22614 23.90860 20.13602 
21.29552 26.90860 20.12236 21.28186 26.90860 20.05298 21.21248 26.90860 20.06664 
21.22614 26.90860 20.13602 21.26366 25.40860 20.14356 21.30306 25.40860 20.08484 
21.24434 25.40860 20.04544 21.20494 25.40860 20.10416 21.22614 25.40860 20.13602 
21.28186 25.40860 20.05298 21.29552 25.40860 20.12236 21.21248 25.40860 20.06664 
21.28722 27.22820 20.13187 21.29137 27.22820 20.06128 21.22078 27.22820 20.05713 
21.21663 27.22820 20.12772 21.28722 28.22820 20.13187 21.29137 28.22820 20.06128 
21.22078 28.22820 20.05713 21.21663 28.22820 20.12772 21.30391 27.22820 20.09744 
21.25694 27.22820 20.04459 21.20409 27.22820 20.09156 21.25106 27.22820 20.14441 
21.30391 28.22820 20.09744 21.25694 28.22820 20.04459 21.20409 28.22820 20.09156 
21.25106 28.22820 20.14441 21.28722 27.72820 20.13187 21.29137 27.72820 20.06128 
21.22078 27.72820 20.05713 21.21663 27.72820 20.12772 21.25106 27.72820 20.14441 
21.25694 27.72820 20.04459 21.30391 27.72820 20.09744 21.20409 27.72820 20.09156 
21.30107 28.53440 20.11138 21.27088 28.53440 20.04743 21.20693 28.53440 20.07762 
21.23712 28.53440 20.14157 21.30107 29.53440 20.11138 21.27088 29.53440 20.04743 
21.20693 29.53440 20.07762 21.23712 29.53440 20.14157 21.29921 28.53440 20.07315 
21.23265 28.53440 20.04929 21.20879 28.53440 20.11585 21.27535 28.53440 20.13971 
21.29921 29.53440 20.07315 21.23265 29.53440 20.04929 21.20879 29.53440 20.11585 
21.27535 29.53440 20.13971 21.30107 29.03440 20.11138 21.27088 29.03440 20.04743 
21.20693 29.03440 20.07762 21.23712 29.03440 20.14157 21.27535 29.03440 20.13971 
21.23265 29.03440 20.04929 21.29921 29.03440 20.07315 21.20879 29.03440 20.11585 
CELLS  6   150
24 0 1 2 3 4 5 6 7 8 9 10 11 12 13 14 15 16 17 18 19 20 21 22 23
24 24 25 26 27 28 29 30 31 32 33 34 35 36 37 38 39 40 41 42 43 44 45 46 47
24 48 49 50 51 52 53 54 55 56 57 58 59 60 61 62 63 64 65 66 67 68 69 70 71
24 72 73 74 75 76 77 78 79 80 81 82 83 84 85 86 87 88 89 90 91 92 93 94 95
24 96 97 98 99 100 101 102 103 104 105 106 107 108 109 110 111 112 113 114 115 116 117 118 119
24 120 121 122 123 124 125 126 127 128 129 130 131 132 133 134 135 136 137 138 139 140 141 142 143
CELL_TYPES  6 
33
33
33
33
33
33
CELL_DATA  6 
SCALARS average_vol_activity_bq_m3 double 1 
LOOKUP_TABLE default
98.49695
84.88244
43.03019
11.32688
2.06535
0.96672
SCALARS total_activity_bq double 1 
LOOKUP_TABLE default
0.03094
0.24000
0.33796
0.26688
0.01622
0.00759
SCALARS mc_error double 1 
LOOKUP_TABLE default
0.00000
0.00000
0.00040
0.00040
0.00040
0.00040
