/*--------------------------------*- C++ -*----------------------------------*\
  =========                 |
  \\      /  F ield         | OpenFOAM: The Open Source CFD Toolbox
   \\    /   O peration     | Website:  https://openfoam.org
    \\  /    A nd           | Version:  10
     \\/     M anipulation  |
\*---------------------------------------------------------------------------*/
FoamFile
{
    format      ascii;
    class       volScalarField;
    location    "29";
    object      Dturbulent;
}
// * * * * * * * * * * * * * * * * * * * * * * * * * * * * * * * * * * * * * //

dimensions      [0 2 -1 0 0 0 0];

internalField   nonuniform List<scalar> 
111443
(
4.96401e-05
4.56227e-05
5.78243e-05
1.84256e-05
2.3901e-05
1.79282e-05
7.77709e-05
6.13935e-05
0.000129631
8.95726e-05
1.28438e-05
1.93143e-05
4.50266e-05
4.04975e-05
3.63616e-05
4.85912e-05
7.33829e-05
3.29065e-05
0.000125467
7.84012e-05
2.8234e-05
5.11641e-05
1.98039e-05
2.02391e-05
3.63078e-06
1.72625e-05
1.57811e-05
3.04617e-05
3.81284e-05
1.55178e-05
3.22434e-05
4.08722e-05
7.1488e-05
5.55863e-05
3.25526e-05
4.25541e-05
0.000218211
0.000107812
0.000143118
0.000100285
6.05084e-05
1.63845e-05
2.57903e-05
3.21689e-06
6.8734e-06
2.89162e-05
2.26205e-05
8.64634e-07
2.73971e-06
6.89382e-06
2.76828e-05
9.53166e-06
1.13697e-05
9.23889e-05
1.81009e-05
4.72813e-05
3.41176e-05
3.67073e-05
3.85675e-05
5.15391e-05
0.000109996
6.07298e-05
9.36414e-05
5.87647e-05
3.54154e-05
0.000401773
9.44502e-05
0.000233937
0.000127594
6.37678e-05
0.000105994
3.94985e-05
1.80575e-05
2.21278e-05
2.55035e-05
4.31014e-06
6.70565e-07
1.3981e-06
6.51555e-06
6.41136e-06
2.67376e-05
1.27567e-05
4.06492e-07
6.2736e-07
1.42166e-06
4.56449e-06
6.89278e-06
1.51591e-05
1.34397e-05
3.0896e-05
4.01033e-05
0.000106233
3.71164e-05
2.14116e-05
4.10715e-05
1.91624e-05
4.40048e-05
5.3557e-05
6.20572e-05
6.43663e-05
7.32953e-05
0.000112328
0.000226081
4.02249e-05
6.4415e-05
0.000150305
6.98058e-05
0.00029774
9.95736e-05
9.29966e-05
0.000576827
0.000177125
0.000100079
0.000203103
8.72559e-05
0.000202057
9.65906e-05
2.42676e-05
3.32794e-06
1.79592e-05
6.75361e-06
1.67595e-05
3.36634e-05
9.42155e-07
3.3204e-07
3.88952e-07
1.30207e-06
1.26282e-06
5.2996e-06
3.89239e-06
2.52992e-05
1.78649e-05
1.39011e-05
3.56975e-07
3.18303e-07
3.89413e-07
9.48699e-07
1.47146e-06
3.39181e-06
2.96042e-06
5.90088e-06
2.51188e-05
1.30263e-05
1.25235e-05
0.000103211
8.02074e-06
2.95011e-05
6.83941e-05
4.50995e-05
4.4769e-05
4.27905e-05
8.70189e-05
8.98202e-05
2.77561e-05
9.06434e-05
5.54423e-05
0.000168705
0.000153012
9.15459e-05
5.54943e-05
5.54084e-05
5.92869e-05
0.000298321
0.000115977
8.28654e-05
0.000127475
0.00042241
0.000179753
0.000140772
7.98015e-05
0.000273861
0.00010693
0.000107778
0.000174936
8.87411e-05
8.90566e-05
6.66382e-07
3.38537e-06
1.4039e-06
1.48244e-05
6.60389e-06
5.24951e-05
2.13607e-05
4.21119e-07
2.56742e-07
1.69358e-07
4.0256e-07
3.92197e-07
1.10202e-06
8.88005e-07
4.98484e-06
4.85682e-06
3.85904e-06
2.21091e-05
1.9992e-05
9.50009e-06
2.35495e-07
1.60457e-07
4.18089e-07
4.17393e-07
6.85015e-07
7.78518e-07
1.29211e-06
4.41241e-06
3.01339e-06
6.19576e-06
1.02466e-05
1.09634e-05
1.69557e-05
1.43691e-05
1.55778e-05
1.37851e-05
2.42106e-05
2.4118e-05
2.28756e-05
9.74934e-05
2.63544e-05
4.98129e-05
4.27789e-05
6.36149e-05
0.000112203
0.00039293
5.64333e-05
6.05623e-05
6.25908e-05
0.000168359
0.0001424
4.05685e-05
6.65056e-05
4.32613e-05
2.81849e-05
6.29315e-05
0.000423564
0.000113595
0.000108265
7.4427e-05
0.00014056
0.00020186
0.000193893
0.000187329
0.000138327
0.000131984
0.000203878
7.97969e-05
0.000134081
0.000139217
0.000162324
0.000172394
1.70457e-05
3.36771e-07
8.21752e-07
3.96235e-07
3.22507e-06
1.36622e-06
2.80857e-05
6.48586e-06
1.0996e-05
3.28669e-05
3.64188e-07
7.70557e-08
1.99184e-07
1.51394e-07
3.99446e-07
3.06131e-07
1.07129e-06
1.05344e-06
9.66817e-07
4.71507e-06
4.30853e-06
2.22475e-06
1.86122e-05
1.23081e-05
4.4133e-05
1.08906e-05
1.65057e-05
1.06771e-05
8.57047e-06
6.79167e-08
3.63461e-07
1.42351e-07
3.34583e-07
2.35844e-07
3.76439e-07
9.39623e-07
8.40171e-07
1.37938e-06
3.43351e-06
2.49172e-06
3.69973e-06
5.69355e-06
3.6507e-06
1.46046e-05
2.28594e-05
9.90425e-06
1.48798e-05
1.16515e-05
1.2025e-05
1.7532e-05
2.60274e-05
2.2712e-05
0.000108464
9.92065e-05
0.00012048
7.91534e-05
8.066e-05
6.79993e-05
4.79068e-05
3.70291e-05
6.98635e-05
5.14863e-05
4.6572e-05
5.69202e-05
0.000127525
0.000129278
0.000133889
3.87266e-05
0.000111092
1.92418e-05
0.000100826
4.6785e-05
3.93599e-05
8.80076e-05
0.000368823
0.000123758
0.000115239
0.000139214
0.000112987
5.28602e-05
0.000470261
0.000158694
0.000814748
0.000131957
0.000178843
0.000141191
3.85786e-05
5.83724e-05
8.15357e-05
0.000123829
0.000282838
9.35039e-05
0.000279861
5.01554e-05
2.71549e-07
3.82627e-07
1.92782e-07
6.639e-07
4.01986e-07
4.5701e-06
1.34248e-06
7.8205e-06
6.37099e-06
1.52657e-05
5.41061e-05
4.50285e-08
3.99499e-08
1.79727e-07
8.72364e-08
3.75298e-07
3.93788e-07
3.32371e-07
1.05225e-06
9.82924e-07
6.69977e-07
3.9003e-06
2.77829e-06
2.49119e-06
2.56888e-06
2.57603e-06
1.79315e-05
3.1445e-05
1.25152e-05
6.05101e-05
3.48959e-05
1.04461e-05
8.48492e-05
2.86455e-05
3.80688e-05
7.91729e-06
7.76354e-06
6.68887e-08
2.55842e-07
6.48943e-08
1.69341e-07
4.07109e-07
2.77229e-07
4.05921e-07
6.99794e-07
8.01886e-07
8.97353e-07
1.27804e-06
8.75899e-07
2.93171e-06
2.62844e-06
3.25387e-06
6.49045e-06
3.82832e-06
1.52291e-05
2.61471e-05
4.68011e-05
1.48202e-05
1.06434e-05
4.59949e-05
1.33799e-05
1.76481e-05
1.04417e-05
9.53438e-05
1.25647e-05
2.11402e-05
3.94618e-05
0.000150618
0.000110849
0.000202791
0.000140143
0.000148072
6.0478e-05
0.000134855
8.00618e-05
6.2824e-05
8.79487e-05
9.21121e-05
8.51965e-05
4.8236e-05
0.000117947
0.000125234
0.000224723
0.000136868
0.000274491
9.70765e-05
2.42437e-05
8.3601e-05
6.1832e-05
0.000106961
9.02667e-05
0.00044699
9.9859e-05
0.000105789
0.000124755
0.000124367
0.000131452
0.000127716
0.000104436
7.2871e-05
0.000127515
0.000178089
0.000137571
0.00045043
9.93103e-05
0.000160238
1.51803e-05
3.11708e-05
8.07143e-05
0.000128902
9.74246e-05
6.94086e-05
9.96467e-05
3.33698e-07
8.49986e-08
3.2837e-07
2.02643e-07
9.44885e-07
3.79643e-07
3.6261e-06
1.32743e-06
6.27773e-06
2.5759e-05
1.47111e-05
1.63727e-05
3.45886e-08
2.37535e-08
1.68129e-07
1.64056e-07
8.29525e-08
3.53297e-07
4.09447e-07
2.38662e-07
9.15701e-07
7.39641e-07
7.36426e-07
8.11156e-07
8.39048e-07
3.46369e-06
2.89384e-06
2.49232e-06
1.95972e-06
1.91247e-06
1.18556e-05
1.15562e-05
6.46778e-05
3.12771e-05
1.09728e-05
7.84876e-06
8.57715e-05
9.08142e-05
5.46089e-05
9.38256e-06
0.000127086
0.000106138
8.95505e-05
7.81464e-05
8.01204e-06
7.27057e-06
5.3209e-05
8.41968e-06
2.73625e-08
8.83137e-08
3.4925e-07
7.91366e-08
1.52334e-07
3.18364e-07
3.38543e-07
3.17762e-07
3.68567e-07
2.85422e-07
7.62739e-07
9.03371e-07
8.26611e-07
1.45641e-06
9.44857e-07
2.91974e-06
3.31979e-06
2.50089e-06
2.93629e-06
6.40425e-06
3.47496e-06
2.69927e-06
2.54501e-05
5.36632e-05
4.30051e-05
0.000107262
1.33335e-05
2.53682e-05
1.27975e-05
5.15499e-05
9.81921e-05
1.06622e-05
8.16148e-06
1.75277e-05
9.96602e-06
7.06721e-05
2.25764e-05
1.00571e-05
7.76301e-05
4.04569e-05
1.33659e-05
8.48943e-05
9.01823e-05
0.000111763
8.37606e-05
0.000157423
0.000212033
0.000148119
0.000107903
0.000148258
0.000209178
0.000161271
7.58012e-05
4.60473e-05
1.66787e-05
3.66305e-05
0.000102146
9.19729e-05
0.000129337
7.0381e-05
6.88762e-05
6.57829e-05
8.78542e-05
0.000103477
4.86379e-05
0.000114364
8.73414e-05
0.000250502
0.000133187
0.000124733
0.000122552
9.81914e-05
9.50798e-05
0.000132092
0.000142523
0.000141183
0.000101336
0.000142784
9.7146e-05
0.00011963
0.000135987
0.000114755
9.03743e-05
0.000101899
0.000150313
0.000162831
0.000176327
0.000327669
0.000130167
0.000179589
0.000118229
2.23594e-05
2.70199e-05
4.99339e-05
4.27339e-05
4.72691e-05
0.000312468
6.27346e-05
2.59071e-07
5.30708e-08
4.0357e-07
1.71349e-07
6.82458e-07
4.08267e-07
1.30328e-06
4.27629e-06
6.47163e-06
1.67615e-05
2.38162e-05
3.64343e-08
3.05824e-08
3.86374e-08
1.59582e-07
1.05954e-07
4.50314e-08
3.16969e-07
3.05188e-07
3.93713e-07
3.50597e-07
3.2767e-07
9.80517e-07
8.29788e-07
8.12687e-07
7.31751e-07
7.32839e-07
3.59215e-06
3.75914e-06
2.49367e-06
1.91308e-06
2.26726e-06
2.02289e-06
1.85718e-06
2.37382e-06
3.22938e-05
1.83352e-05
1.15433e-05
8.15035e-05
2.28019e-05
3.03531e-05
1.14939e-05
6.64844e-06
0.000121461
6.69472e-05
8.93955e-05
8.02154e-06
0.000158816
4.02725e-05
8.88048e-05
8.12398e-06
6.73903e-05
7.15316e-06
8.86865e-05
2.95809e-05
9.17779e-06
1.90874e-08
6.67841e-08
2.57559e-07
6.04156e-08
1.07862e-07
1.64511e-07
8.84657e-08
3.69761e-07
4.24284e-07
4.0644e-07
4.17389e-07
2.95857e-07
6.19541e-07
8.70868e-07
9.26626e-07
7.74146e-07
1.40027e-06
8.48124e-07
6.95804e-07
4.25601e-06
2.9781e-06
3.00767e-06
2.33834e-06
6.73505e-06
3.9091e-06
2.83292e-06
1.70281e-05
8.72731e-05
5.36829e-05
6.36801e-05
4.28405e-05
1.15589e-05
5.03405e-05
4.48001e-05
1.18972e-05
9.74714e-05
9.03711e-05
4.18126e-05
9.82365e-06
1.81017e-05
1.07594e-05
9.40035e-05
3.88252e-05
1.12732e-05
8.01777e-05
9.51219e-05
8.899e-06
1.59029e-05
5.06375e-05
0.000103669
0.000132341
0.000142128
9.747e-05
0.000136976
8.01936e-05
0.00018861
9.13767e-05
0.000233741
0.00012774
0.000116632
0.000161664
0.000118077
0.000158417
0.000114922
0.000189798
0.000165918
0.000157996
0.000188455
0.000126116
0.000148085
0.000166052
1.39219e-05
0.000104755
3.98179e-05
3.09844e-05
0.000121276
0.000129802
0.000102999
5.52969e-05
0.000111883
0.000102472
0.000184217
0.000105784
0.000123981
0.000101587
5.47986e-05
7.9818e-05
0.000163613
6.55817e-05
0.000149152
6.42321e-05
8.83969e-05
8.11017e-05
9.67409e-05
0.000101608
0.000147673
0.000108765
0.00015593
0.000173237
7.42258e-05
0.000101374
0.000120945
9.29804e-05
0.000111444
0.000162476
0.000151113
0.00011918
0.000224982
6.06672e-05
4.17407e-05
6.90324e-05
6.12897e-06
2.93404e-05
4.23561e-05
1.59394e-05
2.16901e-05
3.35078e-05
3.44784e-07
7.70563e-08
3.39663e-07
1.609e-07
3.68978e-07
9.06377e-07
1.36779e-06
3.18679e-06
1.53643e-05
7.81665e-06
4.14309e-08
4.02166e-08
1.55393e-08
9.23517e-08
7.54975e-08
6.15093e-08
9.35716e-08
1.03986e-07
3.5949e-07
3.5409e-07
4.8798e-07
3.87273e-07
3.56355e-07
8.50943e-07
9.37561e-07
7.35059e-07
7.22555e-07
8.78531e-07
8.21882e-07
8.61551e-07
9.44134e-07
3.92526e-06
3.30028e-06
2.66046e-06
1.71036e-06
1.99986e-06
2.06752e-06
1.89198e-06
2.33514e-06
4.73245e-05
2.37483e-05
5.38012e-05
1.13042e-05
7.03008e-05
6.79866e-05
9.79323e-05
6.08357e-05
7.57229e-06
1.02671e-05
2.08797e-05
7.85171e-06
6.89448e-06
6.63234e-05
0.000144969
0.00013188
7.29677e-05
6.99719e-06
0.000156656
7.31959e-05
3.89564e-05
6.69046e-06
8.24074e-06
7.61141e-05
4.63887e-05
6.9308e-06
5.44319e-05
0.000123076
9.02881e-05
7.15418e-05
1.35304e-08
2.40309e-08
9.12984e-08
2.97678e-08
3.26627e-07
9.52092e-08
9.57995e-08
1.62348e-07
1.29691e-07
3.02332e-07
5.06116e-07
4.78087e-07
3.85309e-07
3.77682e-07
2.7313e-07
2.95551e-07
9.07196e-07
8.53796e-07
9.79549e-07
7.14212e-07
1.47116e-06
9.66899e-07
7.50209e-07
3.26472e-06
2.58996e-06
2.69994e-06
2.22165e-06
5.86815e-06
3.4407e-06
2.51865e-06
2.0006e-06
2.61472e-05
8.03921e-05
6.34361e-05
9.39092e-06
5.49312e-05
5.10761e-05
0.000110396
1.17071e-05
0.000105346
0.000133377
6.15586e-05
7.71164e-06
2.058e-05
9.77669e-06
1.54442e-05
0.000124528
3.22465e-05
1.06803e-05
0.00018454
0.000157905
3.51022e-05
8.94387e-06
4.26906e-05
1.29057e-05
0.000116696
0.00021402
0.000183573
7.38801e-05
0.000157032
4.38121e-05
0.000151278
0.000121294
6.71766e-05
7.34866e-05
0.000153681
0.000145815
0.000100939
8.3199e-05
0.000109599
0.000150008
0.000105771
0.000117116
0.00013566
0.000133296
0.000168695
0.000201983
0.000112859
0.00018115
0.000135559
0.000126773
0.000104568
0.000140757
0.000155146
0.000180955
4.43753e-05
0.000113746
9.24435e-05
0.000113258
6.74323e-05
6.04795e-05
5.17581e-05
5.68168e-05
0.000110557
8.58186e-05
6.78437e-05
5.14769e-05
0.0001292
5.58089e-05
5.95253e-05
0.000153254
8.99367e-05
0.000115984
7.43989e-05
4.91762e-05
6.46498e-05
8.90751e-05
0.000134328
0.000100712
0.000153319
0.000115238
0.000156676
0.000138613
0.000161512
0.000192149
0.000196176
9.56221e-05
9.40539e-05
7.15204e-05
0.000192822
0.000207936
6.16211e-05
9.7343e-05
0.000128759
0.000137287
0.000123913
0.000164949
0.000170131
0.000224469
5.79197e-05
0.000152137
4.66396e-05
7.27636e-05
1.31714e-06
5.91114e-06
2.22992e-05
4.65874e-05
2.64141e-05
2.71403e-07
4.49923e-08
1.68155e-07
3.90998e-07
3.99518e-07
6.44194e-07
3.02172e-06
9.76486e-06
3.74123e-05
1.45313e-05
2.48274e-08
1.94412e-08
1.61557e-08
3.05927e-08
3.27925e-08
1.33728e-07
1.15214e-07
1.00543e-07
6.55616e-08
6.30728e-08
3.07703e-07
3.57266e-07
3.93175e-07
4.01957e-07
6.1451e-07
4.57601e-07
5.62872e-07
4.87301e-07
9.3235e-07
8.17104e-07
8.20213e-07
8.76662e-07
9.70124e-07
1.03288e-06
1.09553e-06
1.01062e-06
4.72198e-06
3.91112e-06
1.84093e-06
2.328e-06
1.95979e-06
1.79103e-06
1.84939e-06
1.8575e-06
2.04661e-06
1.87563e-06
1.90469e-05
2.8986e-05
4.32954e-05
8.0429e-05
6.02247e-05
2.72799e-05
2.28726e-05
8.38474e-06
1.19813e-05
7.1331e-05
5.72107e-05
6.90362e-06
5.70894e-05
6.44403e-06
0.000112214
0.000116292
9.21455e-05
6.24244e-06
0.000123605
8.35815e-05
7.28859e-05
5.27688e-05
6.77156e-06
8.93858e-06
0.000143673
6.6991e-05
5.9457e-06
5.86782e-05
0.00011112
1.89762e-08
1.72531e-08
8.07985e-08
4.79514e-08
2.35292e-07
1.16439e-07
8.09287e-08
1.22447e-07
1.54055e-07
8.73216e-08
8.86956e-08
4.032e-07
6.40064e-07
6.19249e-07
4.65337e-07
4.1512e-07
3.09208e-07
2.96181e-07
6.5248e-07
8.14935e-07
1.0202e-06
6.99947e-07
1.26164e-06
8.28513e-07
6.57037e-07
5.93478e-07
4.3302e-06
2.12758e-06
2.71403e-06
1.79092e-06
6.27768e-06
3.77794e-06
2.82119e-06
2.12532e-06
1.77912e-05
9.28858e-05
8.20275e-05
9.03831e-06
5.79105e-05
8.86613e-06
0.000133567
7.04175e-05
2.42276e-05
7.66955e-06
1.60834e-05
1.64321e-05
1.52222e-05
1.12963e-05
7.61618e-05
5.14429e-05
8.03613e-06
0.000113139
4.93989e-05
6.56247e-06
1.82286e-05
2.3649e-05
0.00019296
0.000135573
0.000141668
7.27455e-05
8.30874e-05
4.85246e-05
8.8591e-05
6.90118e-05
4.08061e-05
5.52302e-05
4.31154e-05
6.8199e-05
0.000133802
0.000144412
0.00013046
0.000100413
7.76726e-05
8.84339e-05
9.5732e-05
9.26942e-05
0.000127541
0.000113278
0.000102675
0.000130938
0.000102698
9.36712e-05
0.000122696
0.000124585
0.000114505
0.000210055
0.000192993
9.21712e-05
6.61516e-05
0.000130491
0.000146869
0.000148034
0.000181006
0.0001578
0.000136737
0.000140495
0.000149072
0.000168548
0.000180418
0.000194606
6.62375e-05
0.000106222
0.000187771
3.04177e-05
8.63454e-05
5.8893e-05
0.000117389
5.84506e-05
8.78845e-05
3.81802e-05
1.93611e-05
7.59799e-05
7.35719e-05
4.42542e-05
5.64355e-05
0.000146175
1.84149e-05
0.000133995
4.04694e-05
0.000114502
0.000173401
0.000114236
0.000131371
8.42958e-05
0.000124203
0.00018999
0.000166541
0.000127393
0.000237398
0.000133145
0.000167572
0.000181801
0.000215872
0.000219817
0.000186416
0.000213122
0.000185153
6.53587e-05
0.000138872
0.000159454
0.00011026
0.000226187
0.000139585
0.000165638
0.000100441
0.000123918
0.000154269
0.000200326
0.000199933
4.7672e-05
2.45624e-05
1.82176e-05
2.15888e-05
2.75766e-05
3.49588e-05
3.6062e-07
1.25791e-06
4.52264e-06
7.97773e-08
3.35903e-07
1.55307e-07
3.09483e-07
7.68632e-07
3.26699e-06
2.68348e-05
4.91003e-06
1.95734e-05
2.7482e-05
3.64098e-08
2.91121e-08
2.35966e-08
1.53664e-08
1.4577e-08
1.02699e-07
1.32136e-07
8.59958e-08
5.8871e-08
9.32333e-08
1.01679e-07
7.54799e-08
1.22164e-07
3.63598e-07
3.67116e-07
4.09128e-07
5.82559e-07
7.31976e-07
6.03376e-07
7.4453e-07
5.81809e-07
1.01108e-06
9.5774e-07
6.94912e-07
7.14196e-07
8.69943e-07
1.0365e-06
1.13019e-06
1.12039e-06
1.09976e-06
1.31511e-06
3.93309e-06
2.12458e-06
2.80798e-06
1.77512e-06
1.73309e-06
1.78611e-06
1.93918e-06
2.2416e-06
1.81666e-06
1.92116e-05
0.000110281
6.53731e-05
2.60212e-05
4.10632e-05
7.70484e-06
6.04412e-06
1.16853e-05
6.46317e-05
6.64456e-05
6.50335e-06
7.02838e-06
5.21463e-05
6.46385e-06
8.42481e-05
0.000134098
7.8371e-05
5.78976e-06
9.79061e-05
9.88424e-05
5.73142e-05
5.67506e-05
7.78468e-06
6.69179e-06
7.2064e-05
6.74816e-05
5.42721e-05
5.71786e-06
0.000113166
2.11994e-08
1.43379e-08
2.92432e-08
6.51955e-08
3.19461e-08
2.31461e-08
3.50907e-07
1.05874e-07
1.57485e-07
9.35011e-08
1.52912e-07
1.16814e-07
1.19715e-07
3.25158e-07
6.10965e-07
7.07405e-07
4.76232e-07
3.65479e-07
2.6107e-07
2.55133e-07
3.3372e-07
9.13472e-07
8.48451e-07
1.07054e-06
7.17582e-07
1.39318e-06
9.36781e-07
7.47639e-07
6.51641e-07
3.37581e-06
2.11184e-06
2.14954e-06
1.87255e-06
5.72321e-06
3.30082e-06
2.58434e-06
1.91307e-06
1.59899e-06
1.64905e-05
0.000116569
0.000118521
6.55358e-05
7.50542e-06
0.000102705
4.34439e-05
9.12992e-06
9.69406e-05
9.542e-05
5.20867e-05
5.79427e-06
2.88089e-05
1.60742e-05
1.5551e-05
2.99113e-05
1.21486e-05
3.10435e-05
9.44343e-06
6.88813e-05
3.08717e-05
7.35475e-06
1.48611e-05
6.05298e-05
5.74106e-05
0.000128179
4.67575e-05
4.71884e-05
3.74408e-05
4.81211e-05
7.05014e-05
9.86194e-05
0.000150867
0.000167681
3.73428e-05
4.34539e-05
3.6752e-05
4.6423e-05
6.1761e-05
2.71029e-05
9.90991e-05
4.90532e-05
7.46132e-05
8.17705e-05
0.000154533
7.61998e-05
0.000112464
9.749e-05
9.04014e-05
0.00010866
9.5941e-05
0.000142534
0.000119526
0.000110646
0.000106406
0.000178757
0.000197308
0.000227676
6.89663e-05
6.61718e-05
9.07303e-05
0.000144927
0.000114895
0.000105741
9.87487e-05
0.000115478
0.000145833
0.000145034
0.000186619
0.000226039
0.00010923
0.000191216
0.000132683
0.000210917
0.000215648
0.000228313
1.8951e-05
6.6416e-05
3.57408e-05
1.98806e-05
5.96539e-05
4.95409e-05
0.0001005
5.49005e-05
4.01532e-06
9.83152e-05
3.74994e-05
4.78563e-05
1.76229e-05
3.85843e-06
5.36067e-05
7.94385e-05
5.75608e-05
0.000130857
0.000107436
3.23824e-05
4.78634e-05
0.000132471
9.56861e-05
0.000195063
9.08517e-05
0.000234168
8.176e-05
0.000137449
0.000112886
0.000155756
0.00011392
0.000169523
9.27138e-05
0.000177049
0.000188971
0.000115558
0.000193595
0.000142887
0.000215637
0.000111835
0.000174137
0.000176077
0.000215507
9.7785e-05
0.000163231
0.000285925
0.000107245
0.00014673
0.000189451
0.000130764
0.000190546
0.000148315
0.000181455
3.83787e-05
5.79027e-05
2.71184e-05
1.48796e-05
7.80322e-05
1.50406e-07
3.871e-07
9.98063e-07
6.09069e-08
2.41295e-07
3.68871e-07
6.42594e-07
4.49557e-06
1.10883e-06
1.9969e-05
5.50283e-06
2.65983e-08
3.44461e-08
1.90369e-08
1.55358e-08
2.03753e-08
1.99848e-08
1.12611e-08
2.4314e-08
1.34856e-07
1.13855e-07
1.28203e-07
6.01159e-08
8.80706e-08
1.05182e-07
1.16551e-07
1.11415e-07
3.57291e-07
4.19065e-07
4.11602e-07
3.57997e-07
5.60233e-07
7.29562e-07
8.96621e-07
6.97359e-07
6.59763e-07
9.27577e-07
9.06465e-07
8.42687e-07
9.06861e-07
9.54723e-07
1.22069e-06
1.35295e-06
1.38431e-06
1.21887e-06
1.49504e-06
4.13091e-06
1.92588e-06
1.6291e-06
2.64824e-06
1.74883e-06
1.83267e-06
1.77877e-06
1.81217e-06
2.08229e-06
1.98484e-06
1.86872e-06
4.61506e-05
9.20417e-06
7.10825e-06
1.26386e-05
6.13697e-05
6.63938e-05
5.37335e-05
5.33134e-06
6.19276e-06
5.30696e-05
5.38303e-05
5.5923e-06
0.000107124
7.97758e-05
7.099e-05
5.65171e-06
0.000100572
0.000100949
8.62074e-05
5.44724e-05
7.16108e-05
8.29621e-06
5.35645e-06
8.68953e-05
5.19273e-05
4.92111e-06
1.66433e-08
2.74631e-08
1.8504e-08
7.69851e-08
5.91033e-08
4.16702e-08
2.47e-07
1.38537e-07
1.19776e-07
1.23273e-07
1.64086e-07
7.80511e-08
7.12784e-08
7.83544e-08
3.9326e-07
6.91588e-07
7.6274e-07
5.46241e-07
3.99507e-07
3.07658e-07
2.85814e-07
3.63221e-07
6.62714e-07
8.9553e-07
1.06827e-06
7.4281e-07
1.29849e-06
8.11534e-07
6.63536e-07
5.70511e-07
5.95392e-07
3.19747e-06
1.80714e-06
2.24701e-06
1.49661e-06
6.54559e-06
3.50032e-06
2.81484e-06
2.26583e-06
1.83007e-06
1.66919e-05
7.6595e-05
5.93449e-05
7.45883e-06
7.93066e-05
7.29813e-06
4.93213e-05
2.52759e-05
6.14967e-06
2.61288e-05
2.87646e-05
3.0163e-05
1.22063e-05
1.845e-05
9.80088e-06
5.011e-05
6.90691e-06
7.67452e-05
4.85839e-05
5.19774e-06
4.21421e-05
2.89432e-05
5.94968e-05
2.38356e-05
0.000186473
8.86141e-05
3.78338e-05
4.04949e-05
2.83766e-05
2.68306e-05
2.21315e-05
2.23212e-05
2.60309e-05
2.20668e-05
4.22219e-05
4.95275e-05
4.24712e-05
6.03242e-05
7.46442e-05
9.5859e-05
0.000116734
0.000132687
9.34969e-05
0.000104948
8.23423e-05
8.23256e-05
0.000100658
9.48706e-05
9.2911e-05
5.56466e-05
0.000200731
0.000158245
0.000419196
0.000129026
0.000197059
0.000127777
0.000371986
0.000334451
0.000226286
7.02637e-05
6.97274e-05
0.000104328
7.12146e-05
0.000130087
0.000168607
0.000246529
8.33243e-05
8.28257e-05
0.000118579
0.000114508
0.000311676
0.00027203
8.64311e-05
0.000220307
0.000120506
0.000278217
0.000332051
0.00025328
1.40015e-05
2.47225e-05
4.06705e-06
2.09866e-05
4.46463e-05
2.73286e-05
4.67644e-05
9.22065e-07
0.000109326
1.79821e-05
1.58923e-05
3.6687e-06
1.25115e-05
8.89442e-07
5.16346e-05
6.38137e-05
4.9384e-05
6.17655e-05
9.23503e-06
0.000102632
0.000146829
7.2406e-05
7.05748e-05
5.03443e-05
7.4648e-05
8.75501e-05
6.10585e-05
8.59389e-05
0.000146588
7.07521e-05
0.000278091
9.36045e-05
8.76623e-05
0.000154246
0.000116115
9.93973e-05
0.000219742
7.4662e-05
0.00021258
0.000162872
7.82478e-05
0.000196378
0.000245587
0.000255464
9.98119e-05
0.000106136
0.000214714
0.000202421
0.000157463
0.000119545
0.000138458
0.000122529
0.000220289
0.000252048
8.90995e-05
0.000115979
0.000173084
0.000118999
0.000193555
0.000166471
0.000177515
2.62558e-05
5.26173e-05
1.77073e-05
5.44118e-06
6.89617e-08
1.70551e-07
3.43578e-07
3.25762e-07
3.06206e-07
9.47307e-07
3.28159e-07
3.12275e-06
1.21493e-06
3.66975e-08
2.46341e-08
3.33608e-08
9.52202e-09
1.70748e-08
2.09326e-08
1.44001e-08
2.93119e-08
1.38193e-07
1.50961e-07
6.8144e-08
7.65665e-08
1.20545e-07
1.25481e-07
1.0276e-07
8.43581e-08
8.41673e-08
1.24487e-07
4.10933e-07
4.89319e-07
4.67568e-07
6.82115e-07
8.68269e-07
1.08688e-06
9.02112e-07
7.71114e-07
1.03346e-06
9.96866e-07
7.72881e-07
7.91896e-07
8.46406e-07
9.40611e-07
1.13791e-06
1.47201e-06
1.66709e-06
1.38369e-06
1.64853e-06
1.78112e-06
2.28501e-06
1.89841e-06
2.85501e-06
1.56469e-06
1.74275e-06
1.75996e-06
1.91591e-06
2.25764e-06
1.96594e-06
1.9174e-06
6.93632e-06
5.47125e-06
6.16813e-05
5.42336e-05
4.06209e-05
5.8004e-06
5.86364e-06
5.30028e-05
6.23907e-06
4.59159e-05
5.18628e-06
8.41846e-05
6.87639e-05
5.40791e-06
9.76405e-05
5.46693e-05
3.78355e-05
5.94238e-06
2.90831e-05
5.50786e-06
6.36431e-06
7.97124e-05
5.28571e-05
4.34063e-05
4.73817e-06
2.34106e-08
1.81932e-08
2.46667e-08
8.34546e-08
2.95984e-08
2.3824e-08
1.93163e-08
3.37531e-07
1.0127e-07
1.79224e-07
8.71466e-08
1.42541e-07
9.89631e-08
1.10455e-07
1.16842e-07
3.1781e-07
7.13314e-07
7.86036e-07
5.31871e-07
3.67688e-07
2.55269e-07
2.50351e-07
2.87209e-07
3.88842e-07
7.98429e-07
9.59122e-07
1.16775e-06
7.46596e-07
1.44374e-06
8.64789e-07
7.42292e-07
6.75812e-07
6.92459e-07
3.13416e-06
1.90116e-06
1.97023e-06
1.64998e-06
5.21139e-06
6.98582e-06
2.78477e-06
3.75409e-06
2.28362e-06
1.69473e-06
1.38086e-06
2.32191e-05
9.01841e-05
3.62503e-05
0.00010322
5.64351e-06
3.371e-05
7.43617e-06
5.9321e-05
7.27425e-05
4.13455e-05
4.68545e-06
1.22072e-05
1.52921e-05
1.18086e-05
3.50306e-05
8.72648e-06
1.65159e-05
6.25571e-06
5.94405e-05
9.29817e-05
4.50393e-05
2.38122e-05
6.28928e-05
1.64521e-05
6.31512e-06
6.43491e-06
4.96381e-06
4.38907e-06
1.75979e-05
5.00423e-06
6.82356e-06
7.75393e-06
1.21564e-05
7.48493e-05
2.68317e-05
5.55387e-05
2.7488e-05
3.93971e-05
3.35967e-05
7.43341e-05
8.1218e-05
6.80333e-05
3.89545e-05
4.34654e-05
5.82729e-05
0.000107788
0.000122392
8.05172e-05
9.13572e-05
0.000102237
0.000100343
0.000166143
0.000164673
0.000104507
0.000322275
0.000252111
0.000138819
0.000302218
0.000248887
0.000300482
6.57006e-05
6.70596e-05
6.84863e-05
4.35816e-05
8.27414e-05
8.26894e-05
9.42782e-05
9.475e-05
0.000256746
0.000226884
8.87173e-05
0.000110911
0.000108208
0.000232209
0.000216315
8.80231e-05
0.000195193
0.000113498
0.000234421
0.000206001
0.000276466
1.99824e-05
5.24471e-06
9.29754e-07
4.94642e-06
1.33237e-05
5.04755e-06
1.79986e-05
4.26322e-07
1.50382e-05
3.695e-06
3.32736e-06
1.35682e-05
8.54568e-07
2.62679e-06
1.35894e-05
3.5906e-07
5.76903e-05
1.54413e-05
1.00562e-05
2.1699e-06
5.84776e-05
3.57002e-05
8.71913e-05
7.55241e-05
6.15992e-05
7.86026e-06
7.81711e-06
8.79174e-05
6.87487e-05
0.000100913
7.34672e-05
5.61259e-05
0.000117904
6.95013e-05
0.000112802
8.96359e-05
7.56388e-05
7.83418e-05
0.000136483
0.000204802
0.000103489
0.000178879
7.86216e-05
0.000325647
0.000225337
0.000102192
0.000195837
0.000231803
0.000249596
4.66569e-05
8.72815e-05
8.70036e-05
6.4506e-05
0.000116898
0.000179697
9.2519e-05
0.000165707
8.50852e-05
0.000122074
0.000118188
0.000185895
0.000230221
9.5376e-05
0.000239248
0.000189628
0.000116764
0.000152015
0.000139146
0.000175335
4.41124e-06
2.44306e-05
2.79799e-06
1.17754e-06
3.88807e-08
1.46725e-07
2.3861e-07
4.14402e-07
1.40402e-07
6.37067e-07
3.73925e-07
2.7857e-08
3.81053e-08
1.50123e-08
1.61392e-08
2.18071e-08
1.75667e-08
1.43111e-08
1.34985e-08
1.36886e-08
2.06426e-08
1.10921e-07
1.40348e-07
1.37035e-07
9.34194e-08
1.10978e-07
1.16947e-07
1.18554e-07
1.56772e-07
1.11884e-07
5.10622e-07
4.54008e-07
5.07059e-07
5.1215e-07
6.53989e-07
8.36763e-07
1.04909e-06
1.34355e-06
8.77187e-07
1.08143e-06
1.23946e-06
9.23194e-07
1.01796e-06
8.96175e-07
1.046e-06
1.31657e-06
1.6205e-06
2.05918e-06
1.51815e-06
1.7341e-06
1.89284e-06
1.8406e-06
1.62896e-06
1.70398e-06
1.7355e-06
1.82328e-06
1.89023e-06
2.05382e-06
1.96667e-06
2.09831e-06
2.17871e-06
2.05727e-06
7.20638e-06
4.7556e-05
5.79218e-05
4.93548e-06
4.6505e-06
8.6147e-05
4.99376e-05
5.36027e-06
4.2231e-05
5.61268e-06
7.48029e-05
5.56227e-05
4.56025e-06
6.72576e-05
1.5934e-05
6.52135e-06
4.146e-05
5.25464e-05
4.82017e-06
5.27186e-06
6.19384e-05
5.10226e-05
5.02724e-06
1.5263e-08
2.56947e-08
1.51282e-08
6.76685e-08
4.94561e-08
4.10104e-08
2.93731e-08
2.4983e-07
1.65274e-07
1.09616e-07
1.46639e-07
1.62475e-07
7.25841e-08
6.77343e-08
6.75057e-08
7.4083e-08
3.77112e-07
7.68052e-07
8.51596e-07
5.5059e-07
4.10543e-07
2.9234e-07
3.13169e-07
3.74619e-07
4.49073e-07
6.44979e-07
9.71353e-07
1.25173e-06
7.92473e-07
1.13998e-06
1.4388e-06
7.09115e-07
8.62965e-07
6.46204e-07
6.12176e-07
6.58295e-07
4.00815e-06
1.57944e-06
2.04876e-06
1.34226e-06
2.87474e-06
3.15727e-06
2.80241e-06
2.12637e-06
1.69052e-06
4.86454e-05
1.61926e-05
5.91974e-06
4.66913e-05
5.62453e-06
2.99079e-05
5.23894e-06
9.09778e-06
3.39355e-05
6.31194e-06
4.735e-05
4.68834e-06
1.69094e-05
4.79171e-06
1.61697e-05
3.38245e-06
1.25673e-06
1.34519e-06
1.04247e-06
9.69336e-07
3.47264e-06
1.08198e-06
1.41586e-06
1.46445e-06
2.54649e-06
1.19922e-05
1.0719e-05
1.18158e-05
1.11645e-05
1.13785e-05
1.03949e-05
1.13897e-05
7.51964e-05
8.07993e-06
9.75235e-06
2.21092e-05
3.021e-05
0.000106464
8.09871e-05
7.28234e-05
6.07241e-05
9.7741e-05
0.000118007
6.42721e-05
0.000138026
9.86891e-05
0.000104127
0.000135467
0.000216687
0.000103028
0.000328031
0.000134116
0.000239421
0.00029727
0.000308171
5.95261e-05
5.59388e-05
5.29619e-05
7.03172e-05
5.72131e-05
5.80651e-05
8.42523e-05
5.31532e-05
7.07855e-05
7.03781e-05
0.00020098
0.000181514
8.16235e-05
8.02001e-05
0.000243635
7.02899e-05
6.92993e-05
0.000186462
0.000173835
8.35175e-05
0.000226025
7.22241e-05
0.000203982
0.00023548
0.00024704
3.30006e-06
1.1725e-06
3.25752e-07
1.2396e-06
4.09778e-06
1.02438e-06
4.17893e-06
1.3157e-07
3.19904e-06
8.79806e-07
8.34475e-07
2.89088e-06
3.83609e-07
7.19783e-07
2.97005e-06
9.91532e-06
1.32051e-07
3.26519e-06
2.35534e-06
8.40414e-07
1.10955e-05
7.96672e-06
8.63972e-06
8.53915e-06
8.38648e-06
1.91994e-06
1.98555e-06
7.32797e-06
7.66057e-05
8.31793e-06
6.61482e-05
8.11843e-05
6.20712e-05
5.82853e-05
7.62803e-05
7.82239e-05
8.51335e-05
7.17418e-05
6.04828e-05
6.15051e-05
6.62215e-05
6.58077e-05
0.000225281
0.000239677
8.4826e-05
8.10937e-05
0.00014609
5.21061e-05
6.07352e-05
0.000245235
0.000194216
0.000187334
0.000222103
0.000243692
5.03115e-05
6.38989e-05
4.80395e-05
6.72598e-05
6.54544e-05
7.42636e-05
6.48157e-05
6.81531e-05
6.21753e-05
0.000161867
8.42516e-05
0.000156104
8.36295e-05
0.000128824
0.000187532
7.22787e-05
7.1458e-05
0.00013394
0.000193454
6.2417e-05
0.000121232
0.000184145
7.31747e-05
0.000152835
0.000147568
0.000169453
9.34465e-07
4.10389e-06
6.31601e-07
3.4886e-07
2.24464e-08
3.58374e-07
6.26444e-08
3.16644e-07
1.60043e-07
1.37024e-08
3.27883e-08
3.47988e-08
1.39832e-08
1.3321e-08
1.26053e-08
1.36279e-08
2.36321e-08
1.41548e-08
1.54734e-07
7.38178e-08
7.99762e-08
9.1594e-08
1.35293e-07
1.46532e-07
1.61491e-07
1.49499e-07
1.1372e-07
1.41235e-07
1.47628e-07
5.6781e-07
6.693e-07
5.49799e-07
7.44556e-07
9.6026e-07
1.13788e-06
1.65344e-06
9.56502e-07
1.07671e-06
1.24204e-06
9.48901e-07
1.072e-06
1.29296e-06
1.24408e-06
1.59919e-06
2.0139e-06
2.32911e-06
1.49402e-06
1.96883e-06
1.77486e-06
2.12318e-06
1.98646e-06
1.64338e-06
1.60486e-06
1.83357e-06
2.03086e-06
2.292e-06
2.08396e-06
2.1795e-06
2.10012e-06
2.2443e-06
5.37129e-06
3.61679e-05
5.3233e-06
5.59894e-06
3.37434e-05
5.71416e-06
4.27587e-05
4.15206e-05
4.51084e-06
6.35816e-05
3.34253e-05
4.77983e-06
4.86646e-06
6.38825e-05
3.67451e-05
5.10224e-06
4.17994e-05
5.34143e-05
3.46422e-05
5.66432e-06
3.41862e-05
5.73887e-06
5.73785e-05
4.42287e-05
4.3736e-06
2.46262e-08
1.50812e-08
2.74655e-08
8.5821e-08
2.7848e-08
2.13334e-08
1.77645e-08
1.61986e-08
3.30135e-07
1.08589e-07
1.95306e-07
8.7064e-08
2.0492e-07
1.07641e-07
1.09476e-07
1.16985e-07
1.30266e-07
3.26195e-07
7.18249e-07
9.12762e-07
5.53675e-07
3.84559e-07
4.01574e-07
2.88487e-07
3.6648e-07
3.64274e-07
3.96391e-07
4.49485e-07
9.03556e-07
9.8492e-07
1.27836e-06
7.65828e-07
7.91794e-07
7.81949e-07
7.97013e-07
8.37789e-07
8.44895e-07
1.68174e-06
1.76546e-06
1.53209e-06
2.17471e-06
1.67141e-06
1.38653e-06
3.74815e-05
4.61029e-06
2.56241e-05
5.81306e-06
3.94251e-05
4.06653e-06
7.12171e-06
2.88875e-05
5.21015e-06
3.42164e-06
1.02202e-06
3.42183e-06
8.46181e-07
4.02706e-07
3.84002e-07
3.84292e-07
3.84699e-07
8.62768e-07
3.8327e-07
4.11535e-07
4.03171e-07
7.49165e-07
2.6054e-06
2.37675e-06
2.70722e-06
2.48113e-06
2.62163e-06
2.31231e-06
2.47846e-06
8.79819e-06
2.01829e-06
7.80726e-06
2.21813e-06
7.18746e-06
6.02889e-05
5.79567e-05
6.32867e-05
6.24222e-05
4.84453e-05
7.29256e-06
6.53611e-05