/*--------------------------------*- C++ -*----------------------------------*\
  =========                 |
  \\      /  F ield         | OpenFOAM: The Open Source CFD Toolbox
   \\    /   O peration     | Website:  https://openfoam.org
    \\  /    A nd           | Version:  10
     \\/     M anipulation  |
\*---------------------------------------------------------------------------*/
FoamFile
{
    format      ascii;
    class       volScalarField;
    location    "29";
    object      V;
}
// * * * * * * * * * * * * * * * * * * * * * * * * * * * * * * * * * * * * * //

dimensions      [0 3 0 0 0 0 0];

internalField   nonuniform List<scalar> 
111443
(
5.78308e-10
4.1759e-10
8.64723e-10
6.06621e-10
4.9204e-10
4.04802e-10
8.84025e-10
9.1673e-10
8.74593e-10
5.33167e-10
4.20197e-10
3.47092e-10
4.49573e-10
4.0496e-10
7.75186e-10
1.185e-09
1.42541e-09
7.34749e-10
1.0228e-09
1.18549e-09
5.82904e-10
3.91143e-10
2.96275e-10
4.83216e-10
2.39903e-10
3.18e-10
4.86854e-10
3.99041e-10
8.15361e-10
1.00996e-09
7.35193e-10
1.71636e-09
9.34266e-10
9.05141e-10
8.29074e-10
6.02222e-10
4.18235e-10
8.19645e-10
1.05062e-09
1.45687e-09
8.81571e-10
3.75284e-10
2.75962e-10
2.04723e-10
3.39876e-10
3.37175e-10
4.87874e-10
1.63728e-10
2.20173e-10
3.43304e-10
2.81813e-10
5.87678e-10
4.35537e-10
4.30846e-10
6.43962e-10
1.54184e-09
1.11164e-09
8.53163e-10
1.24214e-09
1.37135e-09
3.59315e-10
5.29244e-10
1.37066e-09
9.90111e-10
5.62679e-10
4.84086e-10
7.26513e-10
6.63235e-10
9.59682e-10
6.13667e-10
9.63675e-10
9.11227e-10
2.64647e-10
4.9528e-10
3.27956e-10
1.9076e-10
1.39694e-10
2.34471e-10
2.37788e-10
3.43702e-10
3.17521e-10
5.85385e-10
1.1084e-10
1.50428e-10
2.37203e-10
1.94933e-10
4.10554e-10
3.07159e-10
6.53739e-10
4.78003e-10
3.71271e-10
6.59682e-10
7.80795e-10
1.33017e-09
1.18557e-09
1.27369e-09
7.11321e-10
8.69006e-10
7.9859e-10
1.51851e-09
6.92763e-10
1.3024e-09
4.95631e-10
4.09155e-10
9.28481e-10
4.55458e-10
1.00077e-09
6.58961e-10
5.48277e-10
4.44268e-10
1.39925e-09
5.35721e-10
5.83099e-10
7.79092e-10
2.72597e-10
7.40104e-10
3.40613e-10
6.45508e-10
1.82881e-10
3.49021e-10
2.30834e-10
3.52166e-10
2.71472e-10
1.30198e-10
9.45595e-11
1.59821e-10
1.64309e-10
2.37346e-10
2.2493e-10
4.11712e-10
3.04947e-10
4.85924e-10
6.03235e-10
7.46448e-11
1.0191e-10
1.61841e-10
1.33104e-10
2.82012e-10
2.12274e-10
4.55847e-10
3.35209e-10
2.61794e-10
5.80928e-10
4.80829e-10
6.64314e-10
4.91244e-10
1.20901e-09
5.02394e-10
8.90636e-10
1.10673e-09
8.41385e-10
5.02394e-10
1.24531e-09
1.1361e-09
8.68963e-10
2.03047e-09
4.44268e-10
8.80139e-10
6.11866e-10
9.93886e-10
6.4694e-10
7.71028e-10
8.7335e-10
8.80857e-10
5.02394e-10
4.40428e-10
1.03556e-09
7.93267e-10
7.93712e-10
3.13166e-10
5.79956e-10
2.4115e-10
2.51845e-10
5.65206e-10
3.00591e-10
6.18897e-10
1.24795e-10
2.41073e-10
1.59314e-10
2.49247e-10
1.9183e-10
3.48643e-10
3.89236e-10
8.81454e-11
6.36761e-11
1.08107e-10
1.1211e-10
1.61883e-10
1.55868e-10
2.83992e-10
2.15397e-10
3.43175e-10
4.22549e-10
5.49058e-10
5.69928e-10
5.51619e-10
6.86629e-11
1.09542e-10
9.01392e-11
1.91691e-10
1.4486e-10
3.1273e-10
2.30792e-10
1.80898e-10
4.07626e-10
3.39706e-10
3.45554e-10
3.50274e-10
4.72523e-10
4.76215e-10
4.59624e-10
8.28489e-10
6.19589e-10
1.19772e-09
1.16323e-09
8.80857e-10
8.9001e-10
7.27374e-10
7.93428e-10
7.85468e-10
4.40428e-10
9.9728e-10
9.46595e-10
7.30582e-10
1.60352e-09
8.80857e-10
1.1361e-09
6.56261e-10
6.61058e-10
1.02565e-09
1.04872e-09
7.88683e-10
7.6308e-10
4.40428e-10
3.73772e-09
8.80857e-10
4.40428e-10
9.03614e-10
1.05527e-09
5.30366e-10
1.3387e-09
6.37081e-10
2.85184e-10
2.8388e-10
4.66448e-10
2.25961e-10
5.01052e-10
5.57413e-10
8.34746e-10
8.44762e-11
1.64452e-10
1.08621e-10
1.7262e-10
1.32723e-10
2.45972e-10
2.75346e-10
4.33877e-10
3.73342e-10
5.9363e-11
7.27644e-11
7.58834e-11
1.09547e-10
1.06548e-10
1.93553e-10
1.48997e-10
2.37318e-10
2.907e-10
3.85056e-10
4.00441e-10
3.8785e-10
4.4711e-10
5.98465e-10
1.27379e-09
5.95587e-10
1.01186e-09
5.43745e-10
4.04457e-10
7.37601e-11
6.07175e-11
1.29428e-10
9.80623e-11
2.12393e-10
1.57104e-10
1.23436e-10
2.80771e-10
2.34966e-10
2.38414e-10
2.46413e-10
3.33445e-10
3.34199e-10
3.24575e-10
4.36236e-10
6.67955e-10
2.36729e-10
3.33558e-10
4.2888e-10
4.16376e-10
8.76643e-10
4.75187e-10
1.02921e-09
6.03758e-10
4.40428e-10
3.73772e-09
6.40594e-10
7.27374e-10
5.88353e-10
4.40428e-10
7.85468e-10
9.48965e-10
7.30582e-10
1.03025e-09
1.06569e-09
4.40428e-10
5.77274e-10
8.98978e-10
5.71399e-10
5.79543e-10
6.7364e-10
8.36841e-10
9.32517e-10
7.88683e-10
8.80857e-10
5.44937e-10
8.80857e-10
4.40428e-10
3.73772e-09
3.73772e-09
4.40428e-10
1.33892e-09
7.93267e-10
1.17036e-09
4.54812e-10
7.3314e-10
1.01227e-09
1.17066e-09
1.1177e-09
6.73398e-10
2.58618e-10
7.40944e-10
4.95854e-10
8.8658e-10
7.55599e-10
5.68868e-11
1.11297e-10
7.34863e-11
1.17956e-10
9.06352e-11
1.70027e-10
1.90634e-10
3.04559e-10
2.64428e-10
4.91849e-10
3.72625e-10
5.10971e-11
7.37532e-11
7.22061e-11
1.30911e-10
1.01738e-10
1.62002e-10
1.97782e-10
2.6516e-10
2.76013e-10
2.67496e-10
3.17237e-10
4.18132e-10
4.19946e-10
3.81974e-10
2.84175e-10
3.81052e-10
1.12375e-09
6.96102e-10
1.14815e-09
1.4433e-09
5.24793e-10
9.38917e-10
7.74351e-10
1.38049e-09
5.3088e-10
3.99078e-10
8.7011e-11
6.60376e-11
1.43325e-10
1.06175e-10
8.35537e-11
1.91183e-10
1.60415e-10
1.62523e-10
1.70018e-10
2.30469e-10
2.30225e-10
2.24432e-10
3.01137e-10
1.67356e-10
2.3587e-10
3.01808e-10
2.9253e-10
3.3623e-10
4.48805e-10
7.16368e-10
2.43051e-10
1.84156e-10
6.27746e-10
3.49763e-10
4.1557e-10
4.43259e-10
4.82318e-10
3.50895e-10
7.43691e-10
4.14079e-10
5.73686e-10
8.80857e-10
8.80857e-10
3.73772e-09
3.73772e-09
4.67736e-10
4.16252e-10
4.06741e-10
4.40428e-10
8.54506e-10
7.30582e-10
7.86131e-10
6.80726e-10
8.05091e-10
8.80857e-10
4.71554e-10
5.17543e-10
6.49715e-10
6.56681e-10
6.48848e-10
7.42734e-10
6.54127e-10
4.40428e-10
4.40428e-10
6.53667e-10
4.40428e-10
4.21918e-10
5.78417e-10
8.80857e-10
8.80857e-10
3.73772e-09
8.80857e-10
8.80857e-10
3.73772e-09
1.15887e-09
8.331e-10
1.16209e-09
6.18069e-10
7.67495e-10
8.4002e-10
7.42016e-10
1.11251e-09
1.0812e-09
5.94687e-10
5.56423e-10
9.50246e-10
7.49374e-11
4.94675e-11
7.99175e-11
6.13818e-11
1.16046e-10
1.30239e-10
2.09873e-10
1.83184e-10
3.43593e-10
2.62884e-10
4.76533e-10
4.81147e-10
4.86598e-11
8.81074e-11
6.88965e-11
1.09685e-10
1.33619e-10
1.80532e-10
1.88016e-10
1.82298e-10
2.20022e-10
2.8722e-10
2.90121e-10
2.63287e-10
1.95923e-10
2.68667e-10
4.86644e-10
3.69988e-10
3.73775e-10
2.81022e-10
3.91034e-10
3.66904e-10
7.78889e-10
1.25335e-09
4.95261e-10
7.23381e-10
7.48089e-10
9.35531e-10
1.10944e-09
5.59083e-10
5.55245e-10
7.66779e-10
7.15598e-10
1.01935e-09
3.83828e-10
4.28588e-10
7.49959e-10
3.08936e-10
9.63174e-11
7.14215e-11
5.62644e-11
1.29232e-10
1.08618e-10
1.09942e-10
1.159e-10
1.57273e-10
1.56782e-10
1.53192e-10
2.05345e-10
1.15823e-10
1.63258e-10
2.08276e-10
2.01648e-10
2.32823e-10
1.71421e-10
1.30571e-10
2.46694e-10
2.93498e-10
3.11366e-10
2.46971e-10
2.92085e-10
4.57701e-10
5.12148e-10
7.94373e-10
2.64824e-10
3.50613e-10
2.09115e-10
7.53484e-10
5.24134e-10
3.97579e-10
4.88812e-10
4.95269e-10
4.39896e-10
4.85553e-10
5.16591e-10
3.83322e-10
5.88038e-10
6.58296e-10
4.68662e-10
4.44767e-10
4.40428e-10
4.40428e-10
3.36895e-10
4.40428e-10
4.40428e-10
8.80857e-10
8.80857e-10
3.73772e-09
8.80857e-10
3.73772e-09
3.04682e-10
8.51928e-10
7.50977e-10
7.85337e-10
5.2691e-10
6.01867e-10
6.275e-10
4.47963e-10
6.51019e-10
6.71509e-10
7.3115e-10
7.91055e-10
7.02492e-10
4.40428e-10
4.40428e-10
6.8417e-10
5.2691e-10
5.56702e-10
5.09664e-10
5.36674e-10
4.40428e-10
7.63201e-10
5.56423e-10
4.40428e-10
4.40428e-10
7.86549e-10
8.80857e-10
8.80857e-10
3.73772e-09
4.40428e-10
4.40428e-10
4.40428e-10
8.80857e-10
8.80857e-10
3.73772e-09
1.1686e-09
9.01181e-10
9.14256e-10
1.28137e-09
9.74874e-10
4.80106e-10
9.51014e-10
9.87135e-10
1.51302e-09
1.05064e-09
9.62793e-10
5.3848e-11
4.13475e-11
7.85642e-11
8.82273e-11
1.42961e-10
1.25187e-10
2.36015e-10
1.81714e-10
3.32013e-10
3.40118e-10
6.09009e-10
4.64078e-11
7.38712e-11
8.98616e-11
1.22026e-10
1.2712e-10
1.23294e-10
1.50477e-10
1.95227e-10
1.97923e-10
1.79358e-10
1.33495e-10
1.8563e-10
3.34422e-10
2.55588e-10
2.58024e-10
1.94024e-10
2.73633e-10
2.59795e-10
3.49785e-10
5.06828e-10
3.92921e-10
2.71638e-10
3.03235e-10
2.16798e-10
7.55543e-10
2.69674e-10
3.15634e-10
7.69381e-10
1.31166e-09
9.81003e-10
4.24533e-10
5.90068e-10
8.5128e-10
1.06155e-09
1.36603e-09
4.81288e-10
8.06653e-10
7.23714e-10
6.50646e-10
4.69161e-10
8.42279e-10
4.15631e-10
3.66095e-10
2.84769e-10
3.6998e-10
8.69442e-11
7.3156e-11
7.40031e-11
7.84034e-11
1.06459e-10
1.05987e-10
1.03713e-10
1.38936e-10
7.91096e-11
1.11514e-10
1.41996e-10
1.37374e-10
1.59077e-10
1.18466e-10
9.05352e-11
1.70481e-10
2.0298e-10
2.14613e-10
1.70446e-10
2.01878e-10
1.863e-10
1.47208e-10
2.80173e-10
3.42687e-10
3.08692e-10
2.69383e-10
3.2996e-10
5.29543e-10
7.94373e-10
4.40428e-10
4.9988e-10
3.24387e-10
3.94464e-10
2.7418e-10
3.32935e-10
6.85429e-10
4.8246e-10
4.56558e-10
4.45567e-10
4.80617e-10
5.06721e-10
3.65266e-10
8.40757e-10
4.35605e-10
3.67097e-10
5.70515e-10
4.53488e-10
7.86648e-10
3.47821e-10
4.40428e-10
8.80857e-10
4.24682e-10
3.28367e-10
4.62672e-10
4.40428e-10
5.64965e-10
4.40428e-10
3.28367e-10
4.40428e-10
5.64965e-10
5.18989e-10
4.40428e-10
5.2828e-10
5.64163e-10
8.80857e-10
8.80857e-10
3.73772e-09
4.40428e-10
4.40428e-10
8.80857e-10
3.73772e-09
9.46296e-10
6.61818e-10
5.92158e-10
1.08364e-09
1.01933e-09
1.27983e-09
7.91055e-10
7.86607e-10
8.8647e-10
7.6762e-10
5.09664e-10
5.61658e-10
5.60389e-10
8.59353e-10
6.42125e-10
1.024e-09
4.40428e-10
7.92501e-10
4.40428e-10
9.22247e-10
4.40428e-10
7.04127e-10
7.92501e-10
4.40428e-10
4.40428e-10
8.80857e-10
8.80857e-10
3.73772e-09
4.40428e-10
4.40428e-10
4.40428e-10
4.40428e-10
4.40428e-10
4.40428e-10
8.80857e-10
8.80857e-10
3.73772e-09
1.50061e-09
8.0276e-10
1.25524e-09
3.37784e-10
4.83392e-10
9.13416e-10
9.26754e-10
1.27563e-09
1.21241e-09
5.29102e-11
5.94417e-11
9.6664e-11
8.48199e-11
1.60427e-10
1.24021e-10
2.27675e-10
2.35369e-10
4.28417e-10
5.32891e-10
8.20933e-11
8.55347e-11
8.29795e-11
1.02006e-10
1.31813e-10
1.33952e-10
1.21274e-10
9.02783e-11
1.26656e-10
2.27377e-10
1.74356e-10
1.7595e-10
1.32324e-10
1.88186e-10
1.79973e-10
2.41871e-10
3.48788e-10
2.70931e-10
1.88109e-10
2.09944e-10
1.49374e-10
1.89865e-10
2.21852e-10
2.99968e-10
4.14487e-10
3.37381e-10
3.30194e-10
2.94033e-10
2.58521e-10
5.07677e-10
2.9837e-10
5.96871e-10
4.02422e-10
7.81999e-10
8.63523e-10
6.78741e-10
8.12383e-10
4.79289e-10
4.91053e-10
1.09144e-09
5.13838e-10
4.50236e-10
7.03982e-10
1.05895e-09
1.03487e-09
1.01146e-09
4.43254e-10
8.06653e-10
5.99688e-10
8.76772e-10
4.51801e-10
4.32888e-10
6.16834e-10
8.09788e-10
4.33845e-10
3.52016e-10
4.82321e-10
3.89644e-10
7.31242e-10
5.27743e-11
7.16876e-11
7.1309e-11
6.98461e-11
9.35309e-11
5.35828e-11
7.55329e-11
9.60631e-11
9.28886e-11
1.0777e-10
8.08421e-11
6.19135e-11
1.16332e-10
1.38571e-10
1.46198e-10
1.16209e-10
1.37774e-10
1.28551e-10
1.01622e-10
1.93507e-10
2.35919e-10
2.12636e-10
1.85738e-10
2.27796e-10
2.29292e-10
2.33108e-10
3.14271e-10
3.36865e-10
3.55138e-10
3.06114e-10
3.18673e-10
2.45519e-10
5.60719e-10
6.4099e-10
3.31519e-10
5.85851e-10
3.38084e-10
6.24079e-10
4.1846e-10
6.47175e-10
4.50091e-10
5.16027e-10
4.03667e-10
8.09348e-10
5.667e-10
4.54239e-10
8.63947e-10
8.35905e-10
4.38609e-10
5.58993e-10
5.83418e-10
5.70497e-10
4.61182e-10
6.07071e-10
4.58449e-10
4.40428e-10
4.24682e-10
5.25617e-10
5.79787e-10
7.82655e-10
8.35969e-10
7.82655e-10
4.0411e-10
7.02243e-10
6.74935e-10
4.14398e-10
5.2828e-10
7.15412e-10
1.26565e-09
4.40428e-10
4.0411e-10
4.40428e-10
4.47461e-10
8.80857e-10
8.80857e-10
3.73772e-09
4.40428e-10
6.3487e-10
4.40428e-10
4.40428e-10
4.40428e-10
4.54591e-10
8.80857e-10
8.80857e-10
3.73772e-09
8.78888e-10
1.67431e-09
1.60297e-09
5.92744e-10
7.81999e-10
7.52914e-10
1.01585e-09
5.75421e-10
7.47022e-10
8.77372e-10
7.33359e-10
1.14392e-09
1.01267e-09
5.68621e-10
8.99387e-10
4.12601e-10
6.38109e-10
4.12601e-10
7.44635e-10
7.04127e-10
1.08141e-09
7.92501e-10
4.40428e-10
4.40428e-10
8.1026e-10
8.49996e-10
4.40428e-10
4.40428e-10
8.80857e-10
8.80857e-10
3.73772e-09
4.40428e-10
4.40428e-10
4.40428e-10
4.40428e-10
4.40428e-10
7.03982e-10
4.40428e-10
4.40428e-10
4.40428e-10
8.00619e-10
8.80857e-10
8.80857e-10
3.73772e-09
1.2336e-09
9.77122e-10
9.97511e-10
9.92791e-10
2.33023e-10
3.40499e-10
4.69205e-10
5.77907e-10
8.99741e-10
6.50463e-11
5.71517e-11
1.0832e-10
8.39628e-11
1.54588e-10
1.60752e-10
2.95569e-10
3.74585e-10
3.7989e-10
5.44543e-10
6.87547e-11
8.86123e-11
9.01908e-11
8.16053e-11
6.07553e-11
8.57284e-11
1.53549e-10
1.17998e-10
1.1905e-10
8.95396e-11
1.28023e-10
1.23001e-10
1.65095e-10
2.37365e-10
1.84616e-10
1.2853e-10
1.43425e-10
1.01741e-10
1.31081e-10
1.52995e-10
2.07486e-10
2.85698e-10
2.32265e-10
2.27873e-10
2.03556e-10
1.77613e-10
2.10585e-10
2.82334e-10
3.38779e-10
3.4388e-10
3.6338e-10
3.16773e-10
3.10881e-10
3.17634e-10
3.04852e-10
3.04615e-10
3.50289e-10
7.46261e-10
7.85014e-10
7.85014e-10
8.49173e-10
9.29048e-10
9.28994e-10
4.49847e-10
5.27353e-10
1.00821e-09
6.93693e-10
4.11713e-10
8.36523e-10
4.11989e-10
1.04678e-09
8.2082e-10
1.08598e-09
3.87003e-10
7.75468e-10
8.59645e-10
7.26893e-10
8.41323e-10
4.37746e-10
3.39306e-10
8.00619e-10
8.49432e-10
4.21951e-10
4.18218e-10
6.02055e-10
3.60969e-11
5.08845e-11
6.4664e-11
6.25058e-11
7.26114e-11
5.47246e-11
4.19695e-11
7.87458e-11
9.38263e-11
9.88518e-11
7.86186e-11
9.32693e-11
8.76387e-11
6.93007e-11
1.31995e-10
1.60592e-10
1.44794e-10
1.26559e-10
1.55352e-10
1.5867e-10
1.60354e-10
2.17176e-10
2.31874e-10
2.44443e-10
2.11063e-10
2.19716e-10
1.69772e-10
2.33854e-10
2.92432e-10
2.84777e-10
3.97089e-10
3.19205e-10
3.07818e-10
3.24331e-10
3.22481e-10
6.3158e-10
6.56141e-10
3.85774e-10
7.85749e-10
4.02663e-10
4.06579e-10
4.25713e-10
4.99434e-10
5.12374e-10
8.72299e-10
4.95117e-10
5.97147e-10
4.44544e-10
8.19878e-10
8.2126e-10
4.65495e-10
8.29446e-10
8.68548e-10
4.56543e-10
8.91961e-10
5.31297e-10
4.11631e-10
3.61709e-10
7.07098e-10
8.83726e-10
4.43548e-10
1.01027e-09
7.51001e-10
2.76643e-10
9.02159e-10
4.91799e-10
7.10775e-10
2.83805e-10
4.34605e-10
6.71973e-10
1.1646e-09
7.26854e-10
6.39389e-10
1.39472e-09
6.82091e-10
8.13e-10
4.40428e-10
4.46815e-10
5.01833e-10
4.40428e-10
6.82091e-10
4.40428e-10
4.46815e-10
8.80857e-10
8.80857e-10
3.73772e-09
7.92588e-10
8.08573e-10
7.92588e-10
4.40428e-10
7.37094e-10
5.75982e-10
4.40428e-10
4.40428e-10
4.06744e-10
4.40428e-10
4.11631e-10
8.80857e-10
8.80857e-10
3.73772e-09
1.83811e-09
1.56997e-09
8.37327e-10
7.48904e-10
5.97723e-10
5.3595e-10
4.68258e-10
9.90276e-10
3.65748e-10
1.26519e-09
4.14853e-10
3.87411e-10
5.85789e-10
5.77447e-10
3.55323e-10
3.61077e-10
3.82528e-10
9.99618e-10
1.27984e-09
1.3886e-09
6.94166e-10
7.81179e-10
7.19052e-10
1.11455e-09
9.13751e-10
4.40428e-10
7.97988e-10
4.40428e-10
4.40428e-10
7.19052e-10
7.97988e-10
4.40428e-10
4.40428e-10
8.80857e-10
8.80857e-10
3.73772e-09
4.40428e-10
7.03982e-10
4.40428e-10
4.40428e-10
4.40428e-10
4.40428e-10
8.53195e-10
4.40428e-10
4.40428e-10
8.00619e-10
8.80857e-10
8.80857e-10
3.73772e-09
6.91078e-10
8.60566e-10
7.38431e-10
5.78142e-10
9.87909e-10
6.86064e-10
1.58819e-10
2.35114e-10
3.31194e-10
7.28209e-11
5.65456e-11
1.04302e-10
1.08876e-10
2.01471e-10
2.58316e-10
2.67515e-10
3.82368e-10
4.87767e-10
3.78951e-10
5.77266e-11
1.03238e-10
7.94476e-11
8.01447e-11
6.02821e-11
8.64898e-11
8.33445e-11
1.11771e-10
1.60393e-10
1.24853e-10
8.70761e-11
9.71563e-11
6.87886e-11
8.93961e-11
1.04264e-10
1.41653e-10
1.94628e-10
1.58107e-10
1.55357e-10
1.39053e-10
1.20746e-10
1.45605e-10
1.94477e-10
2.34396e-10
2.36576e-10
2.51497e-10
2.18568e-10
2.14076e-10
2.19062e-10
2.10462e-10
2.09902e-10
2.46531e-10
3.14959e-10
3.68975e-10
2.90865e-10
2.89547e-10
2.72522e-10
3.08207e-10
2.39326e-10
2.9577e-10
5.17553e-10
8.93617e-10
5.63469e-10
1.00726e-09
8.35738e-10
5.00702e-10
4.9797e-10
5.1995e-10
7.43381e-10
8.04737e-10
4.47417e-10
3.70792e-10
7.67489e-10
4.04313e-10
7.18009e-10
8.86135e-10
9.45212e-10
3.74643e-10
1.018e-09
7.88512e-10
6.44524e-10
8.12655e-10
4.73515e-10
4.63542e-10
6.51604e-10
7.58353e-10
8.28857e-10
3.89452e-10
7.69684e-10
3.68523e-11
2.82886e-11
5.30268e-11
6.31934e-11
6.65171e-11
5.29219e-11
6.28113e-11
5.92887e-11
4.68922e-11
8.93265e-11
1.08532e-10
9.7877e-11
8.55876e-11
1.05122e-10
1.08366e-10
1.091e-10
1.48191e-10
1.57822e-10
1.66373e-10
1.43815e-10
1.49707e-10
1.15899e-10
1.61606e-10
2.00925e-10
1.9682e-10
2.73281e-10
2.20059e-10
2.12068e-10
2.23724e-10
2.22504e-10
2.7295e-10
2.81826e-10
3.60019e-10
3.47474e-10
4.17902e-10
3.13663e-10
3.26477e-10
3.20906e-10
3.74212e-10
5.50329e-10
6.40377e-10
4.8477e-10
3.48214e-10
7.90334e-10
7.56081e-10
3.98083e-10
3.8042e-10
6.27264e-10
1.00368e-09
4.15541e-10
3.00437e-10
1.11273e-09
5.42757e-10
8.5757e-10
2.97697e-10
8.73225e-10
3.84032e-10
7.82641e-10
8.59641e-10
4.82194e-10
3.63495e-10
5.71996e-10
3.83954e-10
5.75409e-10
2.66816e-10
7.39668e-10
3.1726e-10
3.29654e-10
2.10428e-10
5.71713e-10
7.70044e-10
7.7462e-10
1.14116e-09
7.52927e-10
3.2939e-10
3.00197e-10
7.08862e-10
9.76414e-10
5.71883e-10
6.7042e-10
6.89142e-10
7.76375e-10
4.66146e-10
5.25238e-10
4.40428e-10
6.82091e-10
7.39429e-10
8.12178e-10
7.1512e-10
8.48312e-10
4.40428e-10
4.40428e-10
8.12178e-10
8.80857e-10
8.80857e-10
3.73772e-09
5.99488e-10
7.15237e-10
7.73949e-10
5.24362e-10
4.40428e-10
8.14958e-10
4.40428e-10
4.83566e-10
7.16552e-10
5.89543e-10
4.40428e-10
4.40428e-10
4.65343e-10
4.40428e-10
4.21953e-10
8.80857e-10
8.80857e-10
3.73772e-09
7.12964e-10
6.83201e-10
5.74368e-10
3.08018e-10
5.72659e-10
9.80959e-10
3.29718e-10
3.09808e-10
2.92877e-10
3.29768e-10
5.68109e-10
4.74458e-10
2.98705e-10
2.70383e-10
1.02985e-09
6.98924e-10
5.28092e-10
1.33522e-09
9.57832e-10
9.25052e-10
7.50641e-10
7.93934e-10
6.8227e-10
7.93934e-10
6.30475e-10
4.40428e-10
9.54438e-10
9.90619e-10
1.01513e-09
4.40428e-10
6.79654e-10
4.40428e-10
6.30475e-10
4.40428e-10
4.40428e-10
6.79654e-10
8.80857e-10
8.80857e-10
3.73772e-09
7.78722e-10
4.40428e-10
4.40428e-10
4.40428e-10
8.10925e-10
4.40428e-10
4.40428e-10
7.35354e-10
4.40428e-10
4.40428e-10
8.10925e-10
8.80857e-10
8.80857e-10
3.73772e-09
4.66564e-10
7.75048e-10
4.67826e-10
4.2305e-10
7.22807e-10
1.07418e-10
1.60352e-10
2.2898e-10
7.00868e-11
7.33441e-11
1.3628e-10
1.76031e-10
1.84688e-10
2.63493e-10
3.43197e-10
2.6562e-10
5.81673e-11
5.6161e-11
7.52718e-11
1.07884e-10
8.40248e-11
5.86687e-11
6.54552e-11
4.62869e-11
6.04923e-11
7.05182e-11
9.59132e-11
1.31602e-10
1.06856e-10
1.05101e-10
9.41909e-11
8.15358e-11
9.93964e-11
1.32433e-10
1.60057e-10
1.60967e-10
1.71771e-10
1.48995e-10
1.45745e-10
1.49289e-10
1.43521e-10
1.42964e-10
1.70145e-10
2.16655e-10
2.537e-10
2.01191e-10
1.99649e-10
1.88133e-10
2.12739e-10
1.65385e-10
2.03588e-10
3.64569e-10
3.50721e-10
3.48817e-10
3.65332e-10
3.14423e-10
2.6181e-10
2.83559e-10
2.6402e-10
3.32933e-10
3.2614e-10
2.74042e-10
9.00304e-10
3.88683e-10
4.66101e-10
5.00018e-10
7.15924e-10
8.86684e-10
8.33601e-10
4.36069e-10
3.65542e-10
6.66205e-10
7.55959e-10
3.54252e-10
8.28502e-10
8.3759e-10
9.17664e-10
4.87554e-10
7.88512e-10
7.88512e-10
9.75376e-10
8.61833e-10
9.07306e-10
4.98349e-10
4.15329e-10
7.51179e-10
7.70599e-10
2.82604e-10
3.99098e-11
3.15693e-11
6.0142e-11
7.30084e-11
6.58501e-11
5.75984e-11
7.07726e-11
7.33948e-11
7.37091e-11
1.00308e-10
1.06653e-10
1.1243e-10
9.72572e-11
1.0124e-10
7.84764e-11
1.1027e-10
1.36601e-10
1.34311e-10
1.85985e-10
1.49924e-10
1.44427e-10
1.52485e-10
1.51686e-10
1.88981e-10
1.93834e-10
2.4821e-10
2.39381e-10
2.87366e-10
2.16817e-10
2.24833e-10
2.21283e-10
2.58386e-10
2.46278e-10
2.80341e-10
2.91836e-10
2.12972e-10
3.80585e-10
2.10959e-10
2.70528e-10
3.38057e-10
2.57922e-10
4.91862e-10
3.86377e-10
4.33596e-10
7.54632e-10
4.46875e-10
8.4856e-10
8.12961e-10
4.32126e-10
3.50881e-10
2.72308e-10
4.64697e-10
3.31078e-10
4.81844e-10
2.89168e-10
7.57725e-10
4.3916e-10
7.89214e-10
9.17243e-10
4.53584e-10
4.49605e-10
6.14296e-10
3.16731e-10
4.21983e-10
2.70565e-10
8.81896e-10
8.08035e-10
7.90314e-10
4.14881e-10
4.40061e-10
4.00359e-10
3.66839e-10
3.33257e-10
2.92155e-10
5.07202e-10
6.22534e-10
6.66379e-10
4.40904e-10
4.51531e-10
6.67385e-10
7.52436e-10
6.38452e-10
3.28339e-10
7.73949e-10
1.0093e-09
7.23116e-10
1.12362e-09
8.72787e-10
1.01405e-09
6.48337e-10
4.40428e-10
8.12178e-10
4.40428e-10
8.4937e-10
4.40428e-10
8.09738e-10
8.80857e-10
8.80857e-10
3.73772e-09
5.5676e-10
7.90809e-10
5.94434e-10
7.90809e-10
4.6624e-10
4.40428e-10
4.40428e-10
7.31781e-10
6.0949e-10
4.23555e-10
3.07175e-10
4.40428e-10
4.40428e-10
4.15005e-10
4.40428e-10
4.23555e-10
8.80857e-10
8.80857e-10
3.73772e-09
4.30117e-10
3.08363e-10
2.16317e-10
4.1201e-10
6.88655e-10
5.09944e-10
2.81371e-10
2.02514e-10
7.55235e-10
3.0689e-10
2.53033e-10
2.10553e-10
3.52965e-10
1.87099e-10
4.96246e-10
4.77515e-10
7.64309e-10
6.05874e-10
3.62088e-10
7.55454e-10
8.21694e-10
7.84743e-10
7.68488e-10
6.17402e-10
7.78722e-10
1.16772e-09
1.25676e-09
1.07826e-09
7.88485e-10
6.38308e-10
4.40428e-10
6.30475e-10
1.05245e-09
4.40428e-10
6.79654e-10
8.70834e-10
4.40428e-10
7.98858e-10
4.40428e-10
4.40428e-10
6.7796e-10
8.80857e-10
8.80857e-10
3.73772e-09
7.91075e-10
7.35354e-10
4.40428e-10
4.40428e-10
4.40428e-10
8.14783e-10
4.40428e-10
8.88367e-10
4.40428e-10
4.40428e-10
3.24033e-10
4.40428e-10
4.40428e-10
3.08037e-10
8.80857e-10
8.80857e-10
3.73772e-09
3.28355e-10
4.54493e-10
3.29877e-10
2.97312e-10
7.22949e-11
1.08506e-10
1.56293e-10
9.17274e-11
1.19053e-10
1.25948e-10
1.79472e-10
2.36816e-10
1.82842e-10
4.07265e-11
4.74609e-11
6.45983e-11
8.85561e-11
7.1882e-11
7.07473e-11
6.34557e-11
5.48184e-11
6.73007e-11
8.9526e-11
1.0839e-10
1.08755e-10
1.16338e-10
1.00789e-10
9.8508e-11
1.0097e-10
9.71082e-11
9.66542e-11
1.16007e-10
1.47404e-10
1.72557e-10
1.37362e-10
1.36041e-10
1.28289e-10
1.45053e-10
1.12849e-10
1.38566e-10
2.51745e-10
2.41335e-10
2.4002e-10
2.51848e-10
2.16787e-10
1.81037e-10
1.95268e-10
1.82351e-10
2.29612e-10
2.25004e-10
1.89098e-10
2.74046e-10
3.27544e-10
3.52177e-10
3.06741e-10
2.58121e-10
2.48509e-10
3.43335e-10
3.50133e-10
2.92727e-10
1.99312e-10
5.13405e-10
4.64552e-10
6.66691e-10
7.51833e-10
8.1956e-10
3.90366e-10
4.77177e-10
7.03095e-10
3.15412e-10
6.63536e-10
4.55469e-10
9.0287e-10
1.02391e-09
4.34796e-10
7.92065e-10
7.81826e-10
9.35539e-10
5.16511e-10
7.81594e-10
3.03993e-10
4.79336e-10
7.90865e-10
6.99734e-10
5.63074e-10
3.00681e-10
4.94417e-11
4.95729e-11
6.75456e-11
7.17406e-11
7.56258e-11
6.54519e-11
6.81316e-11
5.28564e-11
7.4639e-11
9.22441e-11
9.09185e-11
1.25676e-10
1.01377e-10
9.76399e-11
1.03139e-10
1.02615e-10
1.29106e-10
1.31868e-10
1.69117e-10
1.63024e-10
1.95461e-10
1.47976e-10
1.53082e-10
1.50784e-10
1.76223e-10
1.7047e-10
1.93543e-10
2.01136e-10
1.47633e-10
2.62034e-10
1.46214e-10
1.86807e-10
2.32735e-10
1.78897e-10
3.04642e-10
3.14326e-10
3.03987e-10
2.47818e-10
1.93319e-10
2.33216e-10
3.39344e-10
2.04694e-10
3.08526e-10
3.18216e-10
3.16955e-10
4.71907e-10
4.91042e-10
3.91504e-10
4.46793e-10
8.52061e-10
4.63201e-10
8.71864e-10
7.40528e-10
8.14059e-10
4.3285e-10
3.53898e-10
4.02634e-10
3.33728e-10
8.59486e-10
4.67224e-10
8.57827e-10
4.21439e-10
4.69218e-10
5.15711e-10
5.18275e-10
4.30416e-10
8.05246e-10
4.22544e-10
2.92294e-10
3.08798e-10
2.82277e-10
2.58876e-10
4.25157e-10
2.34154e-10
2.05835e-10
3.57282e-10
3.82401e-10
5.68791e-10
6.47627e-10
6.74373e-10
7.2392e-10
1.0206e-09
5.45377e-10
8.51012e-10
1.1964e-09
9.28917e-10
9.43324e-10
1.5344e-09
8.04324e-10
1.00356e-09
7.88485e-10
7.32031e-10
1.06261e-09
7.33778e-10
1.00051e-09
4.40428e-10
8.09738e-10
7.33778e-10
4.40428e-10
4.40428e-10
7.95999e-10
8.80857e-10
8.80857e-10
3.73772e-09
7.41924e-10
7.68888e-10
7.68888e-10
8.3477e-10
4.72744e-10
3.8365e-10
6.28621e-10
3.88761e-10
4.40428e-10
4.40428e-10
4.15005e-10
3.84851e-10
3.60723e-10
4.40428e-10
4.40428e-10
3.35259e-10
4.40428e-10
3.84851e-10
8.80857e-10
8.80857e-10
3.73772e-09
3.02328e-10
2.163e-10
1.4909e-10
2.89822e-10
3.59672e-10
3.59379e-10
3.02461e-10
1.38242e-10
3.87003e-10
2.14917e-10
1.78404e-10
2.51107e-10
1.45444e-10
2.48133e-10
2.68759e-10
1.27778e-10
5.5257e-10
3.97783e-10
3.06374e-10
2.55335e-10
6.56048e-10
6.25203e-10
5.95412e-10
8.08143e-10
6.88533e-10
4.02237e-10
4.34862e-10
6.11498e-10
6.19391e-10
7.91075e-10
1.07171e-09
1.14738e-09
7.69405e-10
6.89505e-10
8.99633e-10
1.16035e-09
7.98858e-10
1.14e-09
4.40428e-10
4.40428e-10
6.7796e-10
4.40428e-10
4.61892e-10
4.40428e-10
4.40428e-10
4.17756e-10
8.80857e-10
8.80857e-10
3.73772e-09
6.23562e-10
7.95291e-10
7.95291e-10
7.92065e-10
5.40584e-10
4.40428e-10
3.24033e-10
4.40428e-10
5.79811e-10
4.40428e-10
3.08037e-10
4.40428e-10
4.40428e-10
3.24033e-10
4.40428e-10
4.40428e-10
3.08037e-10
8.80857e-10
8.80857e-10
3.73772e-09
2.26601e-10
3.20314e-10
2.27922e-10
2.04994e-10
7.30511e-11
1.05814e-10
8.01233e-11
8.52202e-11
1.2134e-10
1.61443e-10
1.24453e-10
4.53285e-11
6.0234e-11
7.30081e-11
7.31441e-11
7.83691e-11
6.78416e-11
6.62692e-11
6.79551e-11
6.53734e-11
6.50337e-11
7.84846e-11
9.95868e-11
1.16558e-10
9.30125e-11
9.20012e-11
8.67997e-11
9.81351e-11
7.63856e-11
9.36379e-11
1.71702e-10
1.64233e-10
1.63333e-10
1.7158e-10
1.47711e-10
1.23579e-10
1.32946e-10
1.24384e-10
1.56474e-10
1.53362e-10
1.28912e-10
1.89337e-10
2.25831e-10
2.43149e-10
2.1162e-10
1.78495e-10
1.71166e-10
2.37029e-10
2.41359e-10
2.02195e-10
1.37735e-10
3.6175e-10
3.26104e-10
2.75324e-10
3.35591e-10
2.22268e-10
3.19476e-10
3.06494e-10
3.63252e-10
2.14031e-10
3.37378e-10
2.11888e-10
5.03916e-10
7.39852e-10
9.18904e-10
3.2656e-10
4.2089e-10
8.75065e-10
6.02711e-10
3.12885e-10
8.63674e-10
3.94548e-10
6.88238e-10
6.59568e-10
4.04445e-10
8.98456e-10
9.79336e-10
4.29996e-10
5.69986e-10
9.43616e-10
3.43859e-10
3.90455e-10
4.55341e-10
4.62217e-10
3.0359e-10
5.02594e-11
6.20189e-11
6.12247e-11
8.45331e-11
6.82191e-11
6.56958e-11
6.94185e-11
6.90737e-11
8.74575e-11
8.90881e-11
1.14365e-10
1.1021e-10
1.3203e-10
1.00178e-10
1.03474e-10
1.01972e-10
1.19245e-10
1.1644e-10
1.31984e-10
1.37014e-10
1.00938e-10
1.78376e-10
9.99605e-11
1.27409e-10
1.58426e-10
1.22358e-10
2.10017e-10
2.16828e-10
2.09726e-10
1.71375e-10
1.34134e-10
1.61053e-10
2.3426e-10
1.4177e-10
2.12667e-10
2.19176e-10
2.1898e-10
3.13651e-10
3.25331e-10
3.04378e-10
2.49269e-10
2.84217e-10
2.34819e-10
3.29684e-10
2.95683e-10
4.5434e-10
5.31803e-10
4.53703e-10
9.18954e-10
4.36669e-10
8.12459e-10
4.18886e-10
4.97025e-10
8.71711e-10
4.22987e-10
8.29698e-10
4.22221e-10
4.17527e-10
3.02111e-10
4.3082e-10
2.95811e-10
2.01838e-10
2.12722e-10
1.95021e-10
1.7895e-10
2.99834e-10
1.61417e-10
1.42146e-10
2.4669e-10
2.71349e-10
4.95806e-10
3.32017e-10
3.51937e-10
3.8776e-10
5.22919e-10
5.50921e-10
5.89497e-10
7.58681e-10
4.88543e-10
6.2865e-10
7.90968e-10
1.17063e-09
7.05046e-10
6.82113e-10
9.55567e-10
7.29704e-10
1.09513e-09
7.69405e-10
6.12794e-10
9.3076e-10
9.33711e-10
7.33778e-10
7.95999e-10
4.40428e-10
8.53656e-10
4.40428e-10
7.95999e-10
8.80857e-10
8.80857e-10
3.73772e-09
8.67988e-10
7.19127e-10
6.23944e-10
5.59138e-10
7.94284e-10
7.94284e-10
3.29415e-10
7.12937e-10
7.26335e-10
5.74155e-10
4.40428e-10
4.40428e-10
4.2925e-10
2.97908e-10
4.40428e-10
7.42412e-10
6.09035e-10
4.40428e-10
4.40428e-10
4.2925e-10
4.40428e-10
4.29691e-10
8.80857e-10
8.80857e-10
3.73772e-09
2.08499e-10
1.48969e-10
1.01563e-10
1.99955e-10
2.53786e-10
2.48227e-10
2.12955e-10
9.35989e-11
2.72147e-10
1.47858e-10
1.23256e-10
1.7762e-10
9.92188e-11
1.7112e-10
1.89448e-10
2.95489e-10
8.65406e-11
2.79343e-10
2.16551e-10
1.76425e-10
3.43949e-10
3.32316e-10
3.04638e-10
4.2703e-10
3.64363e-10
2.84371e-10
3.07605e-10
4.70567e-10
5.63515e-10
3.32812e-10
1.24867e-09
7.48251e-10
9.1532e-10
8.27026e-10
5.30035e-10
5.27524e-10
7.88078e-10
7.88078e-10
8.31444e-10
4.67521e-10
7.26083e-10
7.06262e-10
4.40428e-10
4.40428e-10
7.72089e-10
4.15793e-10
4.40428e-10
8.3137e-10
8.37068e-10
4.40428e-10
4.40428e-10
8.80857e-10
8.80857e-10
3.73772e-09
6.14781e-10
6.47049e-10
6.83683e-10
9.23059e-10
7.73892e-10
7.46311e-10
7.73892e-10
7.6444e-10
6.20458e-10
4.40428e-10
4.43653e-10
4.40428e-10
4.62879e-10
4.40428e-10
4.40428e-10
4.6522e-10
8.13274e-10
4.40428e-10
4.40428e-10
3.49845e-10
4.40428e-10
4.40428e-10
4.6522e-10
8.80857e-10
8.80857e-10
3.73772e-09
1.54489e-10
2.21261e-10
1.55507e-10
1.39678e-10
7.12624e-11
5.73716e-11
8.16449e-11
1.09215e-10
8.41044e-11
5.28328e-11
6.69765e-11
7.83806e-11
6.26471e-11
6.19152e-11
5.84326e-11
6.606e-11
5.1436e-11
6.29849e-11
1.1619e-10
1.10974e-10
1.10364e-10
1.16021e-10
9.989e-11
8.36695e-11
8.98607e-11
8.41748e-11
1.05826e-10
1.03732e-10
8.7206e-11
1.29177e-10
1.53872e-10
1.65815e-10
1.44248e-10
1.21849e-10
1.16555e-10
1.61639e-10
1.64428e-10
1.37929e-10
9.39864e-11
2.49836e-10
2.24676e-10
1.90254e-10
2.31494e-10
1.53515e-10
2.20026e-10
2.11729e-10
2.50561e-10
1.47752e-10
2.32833e-10
1.46347e-10
3.54136e-10
2.30609e-10
2.96033e-10
2.2044e-10
2.77384e-10
2.8554e-10
3.02169e-10
2.42016e-10
2.75141e-10
2.14185e-10
4.6551e-10
6.22422e-10
4.34261e-10
3.4917e-10
8.17029e-10
4.40274e-10
5.95137e-10
7.45665e-10
3.98721e-10
3.72871e-10
3.95344e-10
3.96417e-10
3.92019e-10
9.0815e-10
8.0875e-10
4.19996e-10
6.61119e-10
8.32425e-10
6.49458e-10
4.75258e-10
7.81149e-10
3.75691e-10
6.51893e-10
5.97351e-10
3.83757e-10
5.89215e-11
5.99148e-11
7.69633e-11
7.41523e-11
8.8785e-11
6.74642e-11
6.96136e-11
6.86254e-11
8.02812e-11
7.88685e-11
8.93036e-11
9.26417e-11
6.84118e-11
1.20554e-10
6.77464e-11
8.62159e-11
1.07069e-10
8.2949e-11
1.43087e-10
1.47782e-10
1.42959e-10
1.16985e-10
9.1764e-11
1.09853e-10
1.59737e-10
9.68751e-11
1.44876e-10
1.49242e-10
1.49406e-10
2.16107e-10
2.24219e-10
2.09942e-10
1.72134e-10
1.96499e-10
1.62043e-10
2.27851e-10
2.03657e-10
3.18992e-10
3.0697e-10
2.9414e-10
3.48374e-10
2.98806e-10
2.96547e-10
5.64788e-10
4.28314e-10
8.6854e-10
4.30327e-10
7.87954e-10
4.33169e-10
4.90224e-10
8.28383e-10
3.38119e-10
2.93219e-10
2.08158e-10
3.0261e-10
2.03468e-10
1.37656e-10
1.44863e-10
1.33055e-10
1.22131e-10
2.07179e-10
1.0997e-10
9.69529e-11
1.68237e-10
1.88229e-10
3.50047e-10
2.328e-10
2.47438e-10
2.72926e-10
3.6844e-10
3.87557e-10
4.13552e-10
4.03359e-10
3.43246e-10
4.86326e-10
4.40066e-10
5.73226e-10
9.26676e-10
6.075e-10
6.55248e-10
6.30229e-10
6.29931e-10