# Selection : patch(face27)
# Faces  :    106
# Area   :    1.506279e-04
# Time        	sum(Tr)
0             	0.000000e+00
32            	3.242788e-04
