# Region type : patch solid:1:20
# Faces  :    106
# Area   :    9.347373e-05
# Time        	sum(T)
0             	-3.688464e+06
27            	-3.688464e+06
