/*--------------------------------*- C++ -*----------------------------------*\
| =========                 |                                                 |
| \\      /  F ield         | OpenFOAM: The Open Source CFD Toolbox           |
|  \\    /   O peration     | Version:  2.3.1                                 |
|   \\  /    A nd           | Web:      www.OpenFOAM.org                      |
|    \\/     M anipulation  |                                                 |
\*---------------------------------------------------------------------------*/
FoamFile
{
    version     2.0;
    format      ascii;
    class       volScalarField;
    location    "1000";
    object      epsilon;
}
// * * * * * * * * * * * * * * * * * * * * * * * * * * * * * * * * * * * * * //

dimensions      [0 2 -3 0 0 0 0];

internalField   nonuniform List<scalar> 
143879
(
181.807058478
1400.58837511
140.911644943
68.8162175974
287.750604
350.003085144
141.232703316
131.005869276
37.550449747
38.360404849
25.5998343464
45.6830747382
91.022859777
45.8277981963
581.090681308
439.095425716
39.2951572587
408.026275631
207.769308583
31.4949777678
29.860986249
8.99931039756
8.4896796151
16.331428949
1.85556520986
3.36589669793
24.0606965097
18.8143344221
134.972618323
82.0507452838
7.8402332727
62.9146382841
543.35123433
334.137597213
344.619621502
76.8671751371
335.340394362
144.268430234
49.8698609407
65.8080936118
7.40362243505
6.48774264461
8.24835279744
7.6259225892
1.66669633195
2.32138456756
3.95005524736
35.2057030594
7.06575766594
1.86711513212
2.34173747782
3.41257978492
1.76253064091
2.13301910803
36.0208160325
20.4465958976
5.78250154737
2.3125233329
15.3972546908
180.348659259
59.25537461
54.8264466854
24.81986863
42.4367146853
725.333894352
230.975116382
255.911424107
226.408156362
71.9186609264
242.552621814
186.80523538
55.6574156021
10.8178928753
11.5656716226
17.6108108024
152.199834452
1.89170571662
2.31610926992
2.25503201063
2.22019132807
1.41899873261
0.999950286075
0.90103962306
1.56746741329
6.57376246774
1.89985636219
35.4098371686
9.14141557854
0.907617764783
4.03038135783
6.96420062906
2.77292403524
2.66989581862
1.57991551469
1.76348564188
1.37249894165
2.46120653872
53.9976288866
3.2055258201
16.1794810764
1.7133888508
13.674652694
3.15122688212
1.43676689035
1.30098988611
11.0066706419
1.63083950157
9.23996994949
157.400630565
40.0929268999
42.1958358673
33.8644362273
9.10663754633
35.3437465126
1148.44911187
292.834016706
139.903994156
144.820528477
226.480911703
162.913675656
127.570045325
286.814082682
401.925920215
47.8891417438
266.777741895
19.4143853142
3.23755048712
3.67705204704
21.0933413078
14.8480314337
38.187938061
1.05675731051
1.20829111808
0.792999367061
0.759445108636
3.94642958342
0.93131105801
7.95144856962
0.937461130987
1.28425770204
0.910056233995
1.00909062171
0.973713510089
2.08995715238
0.954814649638
6.01137211644
2.26117980791
28.697587267
10.7914745186
4.05059653152
3.41077499237
3.91571766834
7.40449725084
1.70318005917
2.31867532198
1.43838203746
1.69731278596
1.19262387954
1.43098284382
1.60954384285
34.0267740353
5.40910648633
2.11308796079
1.77814831233
2.73103941644
11.92567907
12.2679153815
1.55827692239
2.32669335092
9.09370552352
3.3274628029
1.13726406109
2.97937440538
7.54130520072
2.42242766663
1.44547580836
1.15199083924
8.36196059326
238.849132067
51.6027418657
23.8215223419
25.4153859195
33.5197848373
24.8289380796
38.3609594376
29.0114192977
1955.86714216
778.185615209
226.596248937
96.2813292219
109.350975211
127.36034873
154.85355105
130.291524176
67.8035134192
153.94720676
214.160142121
83.1360020405
344.414975734
12.1618007692
44.0544093955
265.150345055
1.4861194921
5.14864603488
2.88978092554
7.36490869974
8.66546411388
18.9014093062
98.1387712725
0.839772132379
0.592499472491
1.0418936816
0.70624648746
1.25353368001
0.640589944779
2.20524098705
4.99113508191
5.11973407078
9.68596684056
1.16307768321
1.16071714422
1.07340039364
1.15749684457
1.7210745494
1.15157637062
1.44134672998
1.79668454451
1.12845814654
4.64563668913
2.44379368423
18.0786924385
13.3126048154
3.90203821758
4.73081266848
2.33383183081
4.21014518423
4.2003337546
3.9655936814
4.7548769884
1.65191419545
1.65342703585
1.37407800123
1.82289891359
0.924687368999
0.839111368272
1.49000551634
0.739787727197
5.17891027027
54.0081494969
13.1892158719
4.26972812092
1.35947850482
1.61353434648
1.53887801178
2.27115731415
2.13556280979
9.64842377552
8.69475496559
1.70310266435
0.934648560366
1.43568820528
8.43259791829
7.32293700744
2.93874153782
1.30444786596
0.943572866108
1.15284298044
3.00204280715
1.97752040662
5.29694040032
3.95652875021
16.4014433049
0.919326846494
1.02177805954
1.50448689564
5.41247582744
365.838879514
123.324738388
38.8507047951
17.1571263448
19.4069609655
21.5759708048
22.7253254014
20.1726379417
6.93605300366
21.1995001976
854.5703361
297.526341993
421.35661828
118.45609929
59.818884737
68.7000800934
93.5680009142
143.719440904
100.001403392
80.198148261
176.781112545
79.0370942404
852.816619759
15.5622704818
49.6728904686
481.929342961
9.63708378884
41.2000944412
167.251022289
1.90638334935
1.28166178321
4.41828213253
2.19540550766
3.21533520912
12.2898613143
11.6144947861
18.7700589791
30.688204372
0.862391965167
0.82686341379
0.924720832931
0.715330611284
0.795459513227
2.69898224212
1.65456615697
1.88737715653
1.90504520364
2.99794121688
6.3487908893
12.6156709428
10.1518295213
18.7885221495
0.894862444843
4.0118344922
1.11845779286
1.27849425246
1.0505852011
1.60970746812
1.2450216087
1.83322379575
1.26952147879
3.57424245087
2.8089845542
13.5895810535
11.5055652419
4.79722065195
9.12632975307
5.00205020663
3.01666642626
3.3736784335
3.69621528723
1.98145595387
6.12675283377
2.40016899156
1.25888501105
0.91828239532
2.31606237484
0.434025092996
0.784775728223
0.363929154361
0.864738775822
0.41198822645
0.628964942406
6.60760212985
2.42021871144
11.6900495601
62.1136642092
23.8702145441
3.40700940154
12.3871203811
2.15899110357
5.39160814252
1.48428288136
0.591630668206
0.574624132136
1.39636651206
1.4376652599
1.92318223011
7.75761274635
6.85435875004
2.42683678078
6.71294822199
0.866416445904
0.772205588849
0.740523422775
1.39931183212
1.21262894875
6.25866926445
5.86028469223
2.04057379353
0.739341306469
0.849801714807
0.808599296468
0.803151067798
0.824966453024
3.13738603199
4.05284024701
9.78842090591
3.22673920985
0.779651309962
0.85228303027
1.29664313755
0.866023376241
0.791427491205
4.6793786353
118.856624057
52.1195704951
58.9569885437
19.7279621656
12.8900690122
12.9462150063
15.7176083786
20.8457263911
17.0757864385
25.6478843679
18.8397007657
1344.66752315
278.880558157
211.915546168
215.860755627
98.4306508783
86.3001821043
48.028939723
54.4666620002
65.6519122303
73.7534223686
108.299867832
96.7179886019
28.0725461505
125.19125563
29.7354738915
121.745875531
538.598313706
643.303191566
9.68499065756
52.1882740777
222.666333197
9.23185432542
19.8764666197
127.917929095
1.72799173359
1.3830671142
1.58225510832
6.08452253344
5.14009078647
2.84932262622
3.86035281852
5.29671260486
12.3197082553
12.4748404174
42.216155259
0.990182795041
0.853304546217
1.40283074502
0.738196657275
1.61410411447
3.05306764784
2.8808051878
2.89181704331
2.300382105
2.52467966744
3.37245454873
3.31280600089
5.07426876545
17.3439392059
13.560454886
13.9112601294
18.945154601
2.12145046871
4.12309131708
1.20341749874
2.75147654847
1.09916652188
1.42363441627
1.93087091557
1.62374461737
3.18842190351
2.84863399705
5.4033878972
11.5595629603
9.66816842261
12.7771343198
8.19655022917
3.0475316572
4.7223841213
2.80403045733
5.81717257565
1.97715579176
1.49508467051
2.62218320994
0.986730052817
0.791516727091
0.381388845108
2.1608331188
0.14973307071
0.376663229566
0.871211296915
0.437369025171
0.467256385714
0.30352950474
0.304497385814
0.177545679098
0.459141350148
0.77420073191
2.52144007289
6.40275561471
1.90318680902
9.10784430079
23.6511637394
16.4177618029
15.5451331333
2.46549642408
4.15506142208
9.30297490446
2.2041184124
1.16568725978
0.614831879194
0.316451664031
0.524626126622
0.303994987323
0.60089597
0.819365939615
1.12771657706
0.488975576133
2.33787009196
6.25437450232
1.46730536403
4.82880521121
1.30571595133
0.893661585589
1.05712392466
4.51405259946
0.726294502648
0.794827387974
0.328965832911
0.621264817865
0.886148214124
0.456137887806
1.19577814908
4.92815247612
1.03757550849
5.04890206345
0.485952302668
0.53422399106
0.418539475915
0.73515721779
2.34236977991
3.08568345463
6.85347403422
0.668873191326
6.10374265319
3.87911483873
11.10311748
0.531734534633
0.644235388257
0.562906566734
0.702286585103
0.617553052686
0.796620642211
0.688968429596
3.89972627428
103.516545632
44.9386515401
33.0588406424
35.9202992236
22.7283991507
15.6836944642
11.2276726822
11.5429256475
11.9478660316
12.846742091
15.9785179029
14.9604156689
4.33220957335
16.9357127409
159.448979762
158.873346244
104.074576412
136.32268865
113.415258467
54.017747039
38.5902389021
46.1599131983
53.1538187386
74.5653706412
99.304889617
83.6781980107
74.4292105777
106.724185653
158.346520634
11.6733224998
37.3880253802
151.067221222
69.5789273254
183.085361352
252.427936245
11.8868006968
31.5191311002
265.190413276
7.10845548439
20.8916983734
76.9427939918
3.13530637993
3.50219024964
2.60373544317
2.20357201011
3.0947863294
4.20431452613
6.08161338985
4.0809745318
3.69189327449
3.21580617455
8.12682742493
17.2034578551
17.8209180158
28.9243850491
1.40827570579
1.95009571148
1.48723365103
2.07773010099
2.29962127367
1.55140026322
3.18412150054
2.45428077863
2.0919901727
3.47361967532
2.18301693773
5.06040470847
3.92741568553
3.98516790292
4.0156265268
5.04563054663
3.90712978448
4.56619352335
5.90257264294
24.2553523042
23.96537375
14.3051416075
19.2132594133
19.7186557339
1.5145039774
2.38301295644
2.18056106805
1.29520564108
1.85381680215
1.65892132815
1.98164926741
2.18400689777
2.12694540515
2.12211372919
4.215164952
14.1982976189
5.32693033121
11.9060346123
6.25824589292
5.95917720994
2.07569127701
4.52651114267
6.20529468419
1.62935150263
1.57357334818
2.20183019579
0.627635283223
0.540371080939
0.40520614987
3.86094409762
2.44830821752
0.142966275087
0.17945472514
0.136477339787
0.118686062941
0.355009155047
0.234698331769
1.08429888096
0.435551111971
0.617508528889
0.416942482713
0.152357777223
0.348842437615
1.00627400742
0.299798056996
0.266265029761
0.139447424988
0.18170584877
0.376680851826
0.40894178657
0.569302580296
1.89596832971
2.82584931569
2.01711373232
1.85369112597
0.81448127685
7.1052307321
9.14773668986
12.9744405904
4.86786055074
14.1115226528
8.20584555952
20.8869505436
10.9556603877
1.32666170913
3.42395408341
2.44032593391
3.61672492183
8.9855557936
0.666153434898
0.92297675309
0.271975304905
0.405070200668
0.304448337214
0.315787474321
0.641287356023
0.490485063501
1.01207096168
0.570611458819
0.336216607979
1.29840115196
1.69615868555
6.23625719538
4.4156589896
0.921058686354
3.45751310131
0.467775083559
0.499471279651
1.03171500869
3.80903358426
0.50609991255
0.456382496925
0.195679679218
0.217112013297
0.571797023131
0.424685071484
1.01651335666
3.7434043155
0.806143284157
3.63858676785
0.327370839419
0.415676701669
0.476543440839
0.354012927464
0.382330523532
0.524211789538
0.618386568927
3.96761432864
2.81660253798
4.35230858427
0.60614386128
0.436532082476
4.4786202996
5.80479013252
7.79858711749
2.49454672396
0.441892173943
0.562262160999
0.423500707115
0.419744887057
0.440066681203
0.532792067564
0.455219793081
0.857695853762
0.32524078478
0.492018645482
3.67892873427
25.0716988759
25.5915128962
17.6847326015
24.2163506506
19.1322254964
12.3243011698
9.65022939047
9.36520772149
9.86200368543
11.8560548042
14.8063190682
13.0636221773
23.8120483723
16.0752611093
16.5460044474
93.5203144214
503.642519685
61.6127194052
75.5165056107
110.501831505
25.0210681507
40.49004079
38.5720959415
34.4304934657
43.7079093004
48.3765318042
55.2234133157
61.3068649072
87.1245610002
33.0207172043
94.8346229617
125.026603273
15.0300528613
56.9814278784
24.813066139
29.9161255632
41.7745051959
349.016251386
145.945275864
4.99576709771
16.5254691483
39.3874912572
136.265544877
15.0807921887
15.4507574868
94.0269076553
4.27442754272
3.9844084247
4.53839979228
3.95569154623
2.92092565997
4.71149694545
3.91604154923
4.58853322586
5.24829110151
9.38984146168
9.02471135177
4.62618605171
7.72703568275
16.4865865716
14.8489491883
31.6717276886
2.57128978777
3.62871970354
1.92426106175
2.54614070058
3.34315751847
3.55133058954
3.26961373419
2.50111905407
4.13261835197
4.16871361086
4.98760571619
2.17392848009
1.89188222444
1.62016879657
5.66214413248
2.91152502365
3.97702567753
8.09585769609
7.00079651103
6.29429830858
6.87554073467
6.25828339632
5.86300732906
6.98682407955
6.80278403041
34.7373423799
28.650124292
13.9153910074
18.5115457969
16.0694018481
1.52036458426
2.42519383602
2.67758953792
1.63663831781
2.03202221017
2.36316830469
2.02573368614
2.34863056666
2.15447478052
2.99790446371
3.59712557968
2.08813090525
4.80365963389
8.28332109948
9.75461974957
27.2986665402
7.8422778511
6.69688304146
3.47420675178
3.14443257951
0.59703130702
0.603712842626
1.98636921397
1.21899711152
0.508262517366
0.290766953208
2.54239823908
0.131762183965
0.104710172718
0.134857390242
0.13424659236
0.116830231201
0.137862053525
0.104184346754
0.114755460192
0.104833113455
0.233698945586
0.23848453128
1.02715441777
0.9282019825
0.466223631038
1.30128851202
0.338560693777
1.05909787275
0.273987337907
0.260260600767
0.106600578445
0.188904404468
0.225387574851
0.293559280114
2.73688489595
0.743447561545
1.43548640045
0.207492370366
0.141526088358
0.111463413624
0.187572532968
0.179644230183
0.393366845981
0.426442866254
1.84771590377
0.426656737644
2.424954055
2.39088575528
2.33722141723
0.618206918557
9.25719520006
0.923727869826
2.55939710284
9.2344314045
11.4108465782
10.8311712095
2.88856446565
3.18336462685
10.1286895511
2.84044981091
8.31670733405
20.6925902649
10.7871388959
1.76868233669
1.85452141343
1.44106947583
2.61940553865
7.71833556276
0.360787815399
0.171434125649
0.547185388103
0.168154309326
0.271876878259
0.22044319414
0.356545173544
0.509440486607
0.204585894085
0.201882572053
0.210369983993
0.414708415992
0.175694976778
0.723289670284
0.784852322311
1.31194706893
5.02694280214
0.733662012587
3.33633552464
0.175667256003
0.588268159661
2.66380592851
0.158483716956
0.223068360363
0.452656344101
0.726703911298
0.547218313851
2.80118573491
0.202594504131
0.115241001921
0.112022200443
0.247826254552
0.25479583989
0.670462721275
3.19729312926
0.606705572792
2.98841987818
0.289799100684
0.391516308567
0.330623860246
0.451708633874
0.550339936797
3.17738598238
3.44932268289
0.493312952168
0.334376036481
0.430442129339
0.396675223323
5.27709364427
4.09746105757
2.76006440585
5.25926144488
3.23032663296
10.5420960054
0.295213271069
0.277021382207
0.19661664214
0.224194972616
0.235004380985
0.263583707811
0.361722318084
0.288802742825
0.301718220051
0.147458565082
0.459287952289
0.261208151111
0.569027956822
3.70985608967
3.39644142682
16.3030035367
28.6929934657
11.8005994454
15.4877541824
19.8302083335
7.71065275294
10.9678419461
8.61657871066
9.62588472126
9.01106590915
8.9679490321
9.12735162565
10.3710781989
13.2890256005
4.99678507028
14.3462177333
16.3831040579
34.7504620153
114.052800801
84.8248606912
52.858211169
65.0444170204
57.4393061568
33.4703045742
36.8062862731
33.016708646
41.3251712585
39.4037227247
43.6116035414
64.2465479497
74.7741083796
76.6609465074
79.687771995
108.404101929
166.541532692
16.1499367828
26.5648054903
6.208249042
12.0140223726
106.542692805
24.6011870002
186.400930136
132.554477685
3.94968990548
23.0569524152
20.9627770908
130.325350369
2.58513793519
13.3469174954
15.8531173479
44.9994039329
4.60085977587
5.02340646954
3.8803533553
5.13774681571
6.00178516609
13.4682017232
3.34804283996
8.2154512781
2.94793093715
2.11733433865
10.4859857213
9.48731205034
7.28162500175
8.18883110942
15.0132721032
16.8096220681
2.36803407784
4.49405731549
1.79872351765
3.14296124561
3.48094775886
3.91967587781
4.16807007383
4.46195320562
5.05621334365
4.50377599561
5.85619421344
3.48552153757
4.435055878
3.2628639874
3.85154514358
4.02291031301
5.13080231745
1.51583719586
1.87316983171
2.39922766976
2.43837384768
6.78507053812
7.50839559442
14.758068231
8.91866914439
7.45790369402
6.06957874434
11.3300912111
5.96812874723
37.3550837734
35.8972265114
26.0898963687
18.1478288364
16.0839819572
14.7811180089
13.0243430958
2.11615955537
3.16686088534
2.06332871371
2.59460775073
2.71435557884
2.40618682223
2.78736899259
2.60556820233
2.38037029499
2.68803572258
2.89051579866
3.84001050134
2.19247849677
4.46894006469
8.23817734641
6.42870757921
15.8237940435
20.6224818416
37.4760454004
5.92577963682
2.943424068
0.496152308447
1.30664012013
0.366468557205
0.432880925973
2.63961856429
0.0762256220012
0.209843526634
0.0699266580793
0.0960668684682
0.269156691414
0.0912398213428
0.142483275873
0.0705094804052
0.104321677702
0.0751448583069
0.101010054388
0.102683732011
0.0944427731163
0.196585390102
0.102184673652
0.20079827076
3.38981976797
0.83975918697
0.86999195499
1.46204038075
0.436890205048
2.57717830326
1.59849105586
0.321011737781
0.245974495446
0.903385560744
1.76251242436
0.24243895156
0.10115313489
0.099994095528
0.137162531515
0.205413563808
0.196577660056
0.343554524493
0.77213761597
1.3182005178
2.27533223688
0.202563686498
0.108293096785
0.116066056802
0.0992402768979
0.185656191422
0.120467229997
0.145247493551
0.3039058285
0.505632325514
0.709999222439
0.355160728901
1.55981128609
2.3930345848
0.639179557174
0.819138749229
2.35186098989
4.37502837305
6.65170844561
3.66405453715
8.79250557355
7.16073679786
4.64902862718
1.67845377908
2.71489360609
1.98648411035
11.0914578887
1.53231952552
4.21442872299
5.95732725981
19.4403329497
12.1121398582
5.35773689325
0.467144489064
1.53099924808
0.541144274211
1.55340648734
2.08085404808
8.08692742684
0.156159512169
0.10419663791
0.198036467903
0.138729612357
0.153958991508
0.310196820836
0.102271862099
0.204278550466
0.284271615593
0.2331357082
0.124390333488
0.18563539582
0.418627624198
0.481853500881
0.554000644432
3.69689196834
5.71828671223
0.315024122083
0.384437050505
2.78136166866
0.290329337257
0.161986105912
0.133525754856
0.380610611564
0.533245136655
0.421717805274
2.43925039651
2.14982247406
0.094507338715
0.248741825763
0.166596311531
0.175581203362
0.216233461477
0.198020475672
0.418206463161
2.47911130818
0.11600989195
0.106907667775
0.0851084306146
0.108515318032
0.164632175156
0.293395479918
0.507485267372
2.95919336864
0.401188768049
0.493182120722
0.240573740123
0.222418685848
0.224399471589
0.226909572635
0.268055743073
0.411676850721
0.467606295288
0.901837388891
0.415575641116
0.2617877617
0.367462243393
0.450162442423
0.384673282296
0.243901148686
3.69148284823
3.8399513902
0.50969420137
2.90891102705
4.39272906046
4.55129512815
6.70841430768
2.82801601932
0.217216473977
0.176059634623
0.154010131549
0.26267451812
0.207003594551
0.226239603367
0.157351202945
0.148662218523
0.26332798124
0.353571940134
0.54599579611
0.510984676993
3.13963874067
3.39881575735
8.43484314048
11.9891693548
14.4888874366
12.4418663333
12.8712636732
9.26597454392
9.96563572184
8.35138018177
9.38033806356
8.14212075903
7.84599061889
7.66772641501
10.4404889257
11.6865949617
23.7976167348
12.4603761092
16.2570424547
16.9739217465
52.0840335572
61.6333982037
248.856097842
45.5069804352
43.1754973438
58.1656428998
15.1938878932
29.6485768824
35.5543507512
31.1585352633
40.4448450746
36.9428502457
39.7023996413
39.6744802704
54.270491396
42.9518598876
75.4169052469
110.229755647
142.561712422
9.82336816595
41.2848620451
9.5863415522
4.85797380212
18.571351566
21.7223198178
109.260403521
221.192165844
3.92597536765
19.5917466655
20.3921836549
79.1729300879
2.19018494121
12.5143216688
10.1540677057
57.9578298862
2.71238781166
3.37627761578
1.34806005497
17.2795317998
8.87271805235
2.53131784963
1.85181218986
10.6226595278
10.9075292599
8.13607035893
20.3718752015
12.7424225434
26.436394142
2.46636160122
2.62977142497
1.68692797432
3.19086419588
5.93023558893
2.85527394931
3.31693655439
3.90524494408
5.31306166713
5.7431176737
5.63278740523
4.03448264509
3.98344633117
6.34669571815
1.59592284043
3.01173349207
2.28591197587
1.72446025529
2.46879721541
3.26255050005
5.52937482094
12.3155230273
1.4657456932
0.502395690793
1.44709990493
2.24046307248
3.49390146647
5.34540858616
4.96395466838
8.71810184836
9.966070653
8.93709648886
6.81322358172
7.1559891031
7.99363937305
6.52645861104
7.10621369372
38.5442047418
39.1908054986
28.2422615536
19.7092245867
17.5276663318
10.6640759835
9.64652494508
2.77701885217
3.47844353039
2.55530902574
3.33415008304
3.32099400958
3.43352133673
3.17382652273
3.63331332105
3.90834022512
3.07751263722
2.88355046745
2.03972408061
3.70823363568
5.01191211565
2.33491980763
2.85369097126
6.94881280053
9.35231379391
7.48927061968
29.0066388634
12.9488765029
33.8160606167
43.2261989848
4.59244629715
8.42010697868
2.84632986005
0.6057340741
0.903958364235
0.333097747225
0.240488384997
0.071244979465
0.0755547404235
0.193611265716
0.0673742985974
0.0698092377115
0.101926073774
0.190806265845
0.0964386256444
0.136932790784
0.0665472429901
0.066973505178
0.103813388129
0.0975664106781
0.0660751190671
0.0975669802954
0.1788882787
0.0961718543877
3.70341380613
0.935813859039
1.23313317332
1.8905930761
1.39627214078
1.3521010298
0.273596756297
0.320213960405
0.117862122381
0.231501741161
0.81841202063
1.00135140408
1.51243152339
0.602850819672
0.196279076938
0.0833794017696
0.0952476472878
0.136406570969
0.0921548319237
0.0974933744116
0.21092532427
1.39756221137
1.68906437501
0.106044990432
0.0684800575503
0.12259672803
0.0994576883883
0.10710966657
0.112102742703
0.0985994976228
0.124140461911
0.287403515796
0.469047014839
6.84017566883
0.656628460977
0.328138635504
0.632645273091
0.522517679237
0.437030108392
1.76928227636
1.91304191134
4.20874529964
5.29800126787
1.20612502151
3.93894890201
3.86015409783
4.38406929599
5.08202847515
4.99139314736
0.656260647017
1.49986878093
2.1395162067
1.73186910705
10.5959819442
1.16407056093
1.06828461134
1.21280211846
2.78702084273
16.7956608492
7.58068918813
4.70222899901
5.43281182199
1.05683669551
0.223132392961
1.35453288975
6.74126615566
0.127296635521
0.10554725459
0.0986233758467
0.128228350412
0.115709865913
0.167902953604
0.131085114724
0.255739907754
0.244280238944
0.197403292848
0.259531593281
0.104724663837
0.152595397449
0.107332519837
0.302674480885
0.479749672974
0.216791823143
0.288108460442
3.31978455528
4.85763426765
0.157496341301
0.291266807255
0.337761797683
2.36380929425
0.280784908615
0.207310727209
0.116166755534
0.128082487709
0.12035697402
0.1443486781
0.199813916954
0.136410378269
0.246495687605
0.560919872602
2.08241010642
0.368723218596
1.86947102894
0.0830772650786
0.173630703512
0.151859964051
0.125416416068
0.192930836015
0.24257360738
0.394428995458
0.358115861031
0.424341921147
2.43698705005
0.107178538102
0.119623632166
0.0747208070962
0.102638374459
0.0822039451533
0.10529432821
0.127571436193
0.260268304074
0.270808552442
0.382218709748
0.40318791502
0.431614706023
2.6565589264
0.288803852883
0.288195539556
0.209744545472
0.219080526978
0.24640858658
0.237236961375
0.588013250113
0.200742289028
0.206905563301
0.205385734852
0.220210049382
0.302286205709
0.287451925391
0.206172816219
3.98996600666
3.66625142361
3.22946501157
3.24447749509
0.908324433962
0.613874343973
4.59230021114
4.54101820793
1.10197642817
2.88635078751
10.2809310045
0.105234790334
0.148840575014
0.127424317776
0.205958259936
0.210357556787
0.174355565188
0.149915444422
0.0983570459254
0.11035423622
0.240887840322
0.246730097003
0.290389807201
0.298644325901
0.349977239203
0.33781891517
0.287346356703
0.389104346273
2.83111575918
3.57138622253
0.647494801224
3.23356355713
8.78970227554
11.0668985091
14.7236048718
11.0231845047
10.9018849574
10.2990140648
4.66682110492
9.52883785827
8.35840949214
9.27470106347
7.8810658075
6.51141298782
7.30469803256
6.75256007581
8.67740819154
4.85274442957
11.4672635135
15.7821029231
18.2034515576
50.4920657015
45.9234932316
80.561604903
31.012270906
27.8662510765
33.8746335439
40.764350921
29.6494945148
36.9797106163
32.8523188596
39.6103077944
29.9340923265
38.4460876389
44.7683003116
30.2085907534
63.0288813345
89.4871564262
97.0857192134
129.212350641
190.725663648
12.51850758
24.8864189718
10.8213691995
14.4631920197
69.0754448961
115.697493512
95.7954387723
2.62478514515
13.6571240045
13.3934688931
90.3386169308
2.20358099074
12.0164337132
9.96379721583
36.764159995
2.59291510558
1.76260080805
1.50555585581
1.25886664171
16.7615113502
9.86951066405
11.4177728564
10.1858120722
12.2598153122
21.1350984993
10.864476199
2.1909637511
2.31151951468
0.871905004521
4.60010708641
2.28002103492
2.10593004267
5.27131634022
5.87123831186
6.01101177373
6.18967071713
6.84675815364
3.82452546754
3.70467320576
4.69474971393
5.97768375313
8.49091060946
0.803831584381
1.12530039667
2.4557208587
2.3335320055
2.35299470042
3.51937504895
3.00405379124
8.23967253059
1.17481907168
0.462073562702
0.804289362108
0.999094253982
1.99195231314
1.62885373427
6.55036946643
1.64157840998
2.96653017828
14.7826775742
9.60543486121
10.0857122274
8.79511421248
11.1766896349
14.4640837631
5.18644453081
4.76355650536
43.0109321812
33.561052744
22.2347862836
15.5513130283
17.4237940665
12.7602060581
9.06369168094
7.40984742485
4.57171376772
4.27158183984
4.13134607399
4.03697072628
3.40667196296
3.16786210295
3.13890881371
2.16484007305
2.93585220778
2.05964891336
4.40803924123
4.71718135076
5.03120401109
3.91432908981
4.12609756225
2.98637905117
8.50333201212
9.39055188529
17.9520709102
39.1272076119
10.332003484
42.2172239769
47.66393161
5.9745100014
0.479718373218
0.252593861722
0.240929832483
0.0689754060027
0.0738995470613
0.0578313040119
0.184348577943
0.0581333403704
0.0672255984644
0.0588509433932
0.112679353531
0.0781557270434
0.156646127008
0.247966822243
0.0778322135864
0.104602361269
0.200246314285
0.0638905620114
0.0568827514749
0.0691419651591
0.0642038558927
0.100919476639
0.102605680199
0.0658158454071
0.0898262443182
0.0864853686466
0.19896931957
0.0882689826955
0.0970910215859
18.0385952943
3.25660051776
2.47083950334
1.51023960024
3.02554222697
3.95689595521
2.06207735665
0.764861853909
1.69593666753
0.662506505693
0.292406041411
0.335583555396
0.0866617849504
0.114233038056
0.42703173734
0.874555701129
0.743671156476
0.86105154874
1.6277843504
0.181483406317
0.084214481694
0.148320359685
0.0828460106747
0.090593102466
0.192531977644
2.9725213982
1.78898756046
0.0725832035821
0.0687372615188
0.105549899239
0.0780403908016
0.0990129102673
0.157365505442
4.92066984369
0.335635580534
0.392645545096
0.157868196764
0.957683848118
1.62047173172
0.92691398881
2.68148749974
3.12504134031
3.7434920296
5.8429426785
0.978328981515
1.00299261366
1.73327120419
3.49559324214
3.64920600217
3.17772417845
4.98904233625
4.27986178604
4.90503553932
0.200056217169
0.92181322344
1.13657433906
1.04856850553
1.79051952494
11.6020091255
1.53957378124
0.747003452689
0.907759320481
1.59770758363
1.01884495375
2.32536017338
10.1357582052
8.47723023399
8.7246522033
2.93767402
0.631299851357
0.172667282146
0.626083439972
0.751263069813
0.839467538846
6.78105646168
0.115503187507
0.09382310262
0.0769169474625
0.0661437759209
0.106010095097
0.0991891077751
0.095162499596
0.159287893785
0.161800952956
0.204398860698
0.115319901156
0.0854338527942
0.117366445785
0.100115173782
0.315781455172
0.1933270418
0.271119989703
0.17993433798
0.221982012422
0.276674386755
3.56167350206
0.373420078243
4.90852815037
0.111917521579
0.165192099212
0.18698553786
0.167017246801
0.19391948759
0.232222499341
2.21360570743
0.188349507571
0.217157888291
0.176506717867
0.0869908992008
0.147742886613
0.115630432582
0.132449397717
0.101776104475
0.113805005267
0.138959944527
0.133237303387
0.116954860205
0.264839344333
0.475636412127
1.48415928783
1.63692512886
0.32645692162
1.576395779
0.0798922013731
0.129390471487
0.120561295243
0.258390136723
0.228385493732
0.26503108026
0.245151604993
0.220756039955
0.357071048704
1.94632002739
0.0746048465915
0.0756276274574
0.0758550773418
0.0582100515924
0.0732691203994
0.0842084868744
0.100868661325
0.0626097980749
0.140104970889
0.232172462603
0.256264223396
0.316237319715
0.414254311179
0.264764547026
0.497559313742
0.187134548796
0.160989363667
0.0876014916637
0.0887057021782
0.387612729835
0.158758336705
5.42389308093
1.15385813158
4.61256231161
1.27654298681
2.91208955119
3.23356303286
0.730558085504
0.541953325993
0.422906971831
6.38058257307
4.57821080883
3.55177039028
0.953858598263
4.07792113004
6.61196935699
3.26746658082
0.0750268152375
0.101111420919
0.122179550807
0.121924895695
0.136524143219
0.11048495872
0.0889023599335
0.0921455295106
0.096188912467
0.0718013678102
0.104435039033
0.0717052777195
0.230026796531
0.171471738285
0.186564285584
0.253591894673
0.34881397796
0.18645248843
0.304008034935
0.318674274866
0.460555228171
2.57434203289
0.655394561936
3.2891678528
0.423867693542
0.360418357173
3.46674321036
7.97022385749
8.37693880328
9.95231070898
7.62922064226
9.84485814557
6.67961277895
6.41643888753
9.14504489879
8.40677005682
8.76504156415
7.76904343093
5.24926037023
6.42050001327
7.56565126615
5.48180462569
10.3062346068
27.9018037493
14.5661705294
17.6476816078
19.6572143426
28.9120680935
43.0979279188
80.5386247864
16.3686394279
82.8718320651
17.6725988186
45.0875930302
22.4372147966
20.8014699435
36.4182577953
28.2570784904
41.3687184325
26.7653026652
27.7839070124
40.4012367696
31.7158557946
38.3179157785
27.6263245952
54.8807041311
85.7426366664
109.511773409
125.818880816
149.946262252
5.01094399929
10.4278234872
9.42299388914
27.5007524667
34.2741786568
17.88792173
16.4450696603
80.2575506379
209.290457393
24.9177569854
13.3850231846
68.1812319097
11.4258363765
10.2676546002
46.4562313393
1.42984645307
1.66095627817
0.693194583672
16.429331826