/*--------------------------------*- C++ -*----------------------------------*\
  =========                 |
  \\      /  F ield         | OpenFOAM: The Open Source CFD Toolbox
   \\    /   O peration     | Website:  https://openfoam.org
    \\  /    A nd           | Version:  10
     \\/     M anipulation  |
\*---------------------------------------------------------------------------*/
FoamFile
{
    format      ascii;
    class       volScalarField;
    location    "27";
    object      V;
}
// * * * * * * * * * * * * * * * * * * * * * * * * * * * * * * * * * * * * * //

dimensions      [0 3 0 0 0 0 0];

internalField   nonuniform List<scalar> 
204806
(
1.16469e-08
1.20858e-08
1.02094e-08
1.52149e-08
8.11214e-09
8.86364e-09
1.7027e-08
4.04399e-10
1.32749e-08
4.94676e-10
1.69222e-08
1.17545e-08
8.89227e-09
1.12415e-08
3.91963e-08
3.698e-10
1.2563e-08
1.40927e-08
1.66588e-08
1.20602e-08
7.53615e-09
8.97832e-09
5.27383e-10
2.12956e-08
8.2791e-10
3.68887e-08
1.3289e-08
1.21852e-08
1.98996e-08
2.86624e-08
1.09771e-08
1.10776e-08
1.19955e-08
2.26349e-08
5.77871e-10
1.50573e-08
7.18985e-10
1.0592e-08
1.39946e-08
5.15748e-10
1.18698e-08
2.56051e-08
7.08215e-09
9.56868e-09
1.5883e-08
1.54566e-08
1.19885e-08
6.5193e-09
2.02708e-08
9.11411e-10
1.6569e-08
1.10179e-08
7.00818e-10
4.00481e-08
3.56201e-08
1.2697e-08
7.01191e-09
1.63802e-08
1.75314e-08
1.23519e-08
2.07666e-08
2.11584e-08
7.42887e-09
2.50441e-08
1.73022e-08
1.11352e-08
1.26504e-08
2.65158e-08
8.74734e-09
7.20221e-09
1.19071e-08
4.86359e-08
1.41495e-08
1.81396e-08
8.26208e-09
3.41475e-08
9.13569e-10
2.76012e-08
1.08063e-08
1.58456e-08
1.2533e-08
7.35087e-09
1.39066e-08
1.12785e-08
5.97332e-10
2.81752e-08
9.71338e-09
1.47689e-08
1.05884e-08
4.0167e-08
1.53886e-08
2.4574e-08
1.2883e-08
1.15381e-08
1.64118e-08
6.2613e-10
2.87588e-08
1.18211e-09
8.58921e-09
4.7074e-10
2.28432e-08
9.19507e-09
8.98267e-09
2.02721e-08
3.12076e-08
1.14527e-08
1.40787e-08
8.5984e-10
1.49197e-08
2.26056e-08
1.8397e-08
1.38437e-08
5.59166e-10
1.44987e-08
9.2493e-09
1.39029e-08
1.95729e-08
4.18444e-10
2.09706e-08
3.43892e-10
1.07362e-08
5.16783e-10
6.59614e-10
7.78562e-10
3.66696e-08
1.56459e-08
1.53266e-08
1.31594e-08
7.27628e-09
8.91889e-09
1.21235e-08
7.85248e-10
6.18413e-10
1.1979e-08
1.31355e-08
1.00794e-08
1.1884e-08
2.45528e-08
3.3582e-08
2.36095e-08
1.52591e-08
1.23051e-08
2.51465e-08
3.894e-10
8.07778e-09
1.39375e-08
1.28665e-08
1.22886e-08
9.93416e-09
9.7139e-09
9.53116e-09
1.84892e-08
2.08403e-08
1.09574e-08
4.37985e-08
1.13687e-08
8.29409e-09
2.31509e-08
1.02487e-08
1.62449e-08
6.25881e-09
8.54454e-09
1.17969e-08
3.28196e-08
1.20634e-08
1.00945e-08
9.67329e-09
9.41854e-09
5.96472e-10
2.23495e-08
2.77628e-08
1.43761e-08
2.45478e-08
3.59952e-08
1.42721e-08
1.5624e-08
9.87185e-09
1.38216e-08
1.70693e-08
8.46914e-09
1.50239e-08
3.5147e-08
4.94426e-10
9.86772e-09
1.77018e-08
6.95695e-10
2.81705e-08
1.85688e-08
3.49986e-08
7.43281e-10
1.74947e-08
2.09405e-08
4.61656e-08
1.03302e-09
9.84766e-09
1.25603e-08
3.69051e-08
1.38167e-08
3.64642e-08
1.32416e-08
1.21195e-08
2.7568e-08
8.68752e-09
2.74977e-08
1.10656e-08
2.72512e-08
1.55974e-08
1.00905e-08
4.98751e-10
1.34081e-08
7.10096e-10
1.06732e-08
9.20186e-09
7.5048e-09
9.67216e-09
1.1487e-08
1.23318e-08
1.2693e-08
1.1297e-08
1.04589e-08
2.93147e-08
1.60273e-08
1.04457e-08
4.21983e-10
2.95076e-08
9.79581e-09
7.00585e-10
7.14081e-09
5.70809e-09
7.35604e-09
9.18828e-09
1.29707e-08
2.26575e-08
2.95211e-08
1.89464e-08
1.02292e-09
8.28825e-09
4.94926e-10
1.18401e-08
1.19618e-08
1.07226e-08
1.09927e-08
1.20962e-08
1.0523e-08
5.48943e-10
1.78264e-08
1.25435e-08
7.42814e-09
1.5321e-08
9.76361e-09
2.08499e-08
9.38397e-09
4.95895e-10
8.38784e-09
1.11287e-08
1.28736e-08
7.62005e-09
9.55281e-09
1.60971e-08
3.56567e-08
1.3073e-08
3.59893e-08
1.83082e-08
1.14626e-08
1.63336e-08
3.13456e-08
2.6455e-08
3.56661e-10
4.13864e-08
1.17814e-08
4.29234e-10
8.63433e-09
1.95731e-08
4.8217e-10
1.06269e-08
3.37067e-08
2.63697e-08
1.17055e-08
9.15812e-09
1.85097e-08
1.0473e-08
1.19242e-08
1.9431e-08
3.53505e-10
1.06045e-08
9.50039e-09
1.71179e-08
2.29532e-08
1.47258e-08
9.42235e-09
6.4517e-10
5.15561e-10
1.13185e-08
5.66706e-10
2.10853e-08
1.12045e-08
7.63907e-09
1.7435e-08
2.07917e-08
1.87726e-08
5.05232e-10
1.34183e-08
9.41699e-09
2.93016e-08
1.33561e-08
1.5393e-08
8.71503e-09
2.02994e-08
8.73513e-09
3.6215e-08
2.57862e-08
2.37132e-08
4.71717e-10
1.25575e-08
2.4661e-08
1.13216e-08
3.99095e-08
3.41187e-08
2.79876e-08
3.52362e-08
7.97832e-10
4.15318e-10
1.7279e-08
1.11549e-08
7.2412e-09
8.43938e-09
1.35897e-08
1.52946e-08
2.88986e-08
2.24646e-08
3.1099e-08
9.02182e-09
1.83877e-08
1.46995e-08
1.96393e-08
2.48035e-08
1.12288e-08
8.32446e-09
3.82433e-08
1.26985e-08
5.02223e-10
2.21037e-08
1.07437e-08
3.57958e-08
1.04591e-08
7.88615e-09
2.06175e-08
8.69755e-10
2.56611e-08
8.15921e-09
2.59616e-08
9.27872e-09
1.51241e-08
9.81848e-09
2.23853e-08
3.1139e-08
2.10309e-08
4.05775e-10
8.2049e-10
1.57442e-08
3.35821e-09
1.27995e-08
1.09129e-08
1.43502e-08
4.35321e-08
9.05534e-10
5.69216e-10
1.1899e-08
1.90168e-08
2.23406e-08
1.58336e-08
2.11749e-08
8.50395e-10
9.83087e-09
1.73933e-08
1.00576e-09
2.62046e-08
1.37613e-08
8.36596e-09
2.82889e-08
1.26458e-08
1.42051e-08
1.37956e-08
5.46936e-10
4.27619e-08
3.90647e-08
1.31827e-08
7.1486e-09
1.39399e-08
2.13874e-08
4.98847e-10
8.07773e-10
6.6121e-09
1.71783e-08
2.57118e-08
1.68753e-08
1.72103e-08
5.43473e-10
8.67748e-09
8.74346e-09
1.53288e-08
8.4822e-09
3.23591e-08
8.59889e-10
1.28412e-08
3.60346e-08
2.68961e-08
1.17579e-08
8.32669e-09
1.4137e-08
4.24615e-08
3.9456e-08
5.0364e-10
5.38389e-10
9.25354e-09
4.6379e-08
2.04647e-08
1.32903e-08
2.1646e-08
1.29291e-08
2.41079e-08
1.11584e-08
9.31064e-09
1.05624e-08
1.33186e-08
2.02753e-08
9.32148e-10
2.15728e-08
3.57694e-08
2.87039e-08
9.53132e-09
1.554e-08
2.48901e-08
9.60762e-09
3.77414e-09
2.04977e-08
3.24298e-08
2.053e-08
1.50669e-08
1.22577e-08
6.10343e-10
3.27006e-10
9.3775e-09
7.40954e-09
5.08695e-10
1.50273e-08
1.41132e-08
2.21427e-08
8.70188e-10
2.74111e-08
3.95944e-08
1.30943e-08
7.23038e-10
2.23025e-08
3.71126e-09
1.37807e-08
8.59124e-09
1.84013e-08
3.13483e-08
2.81352e-08
1.0516e-08
3.99538e-10
9.6222e-09
2.13789e-08
4.89727e-10
6.33959e-10
2.14282e-08
8.33479e-09
4.72875e-09
4.5377e-08
4.0528e-10
6.5287e-10
7.6412e-10
2.02079e-08
6.80318e-09
1.09474e-08
6.2105e-10
4.00984e-10
1.93267e-08
4.2616e-08
2.14128e-08
9.56495e-09
2.22749e-08
4.05848e-08
1.07542e-08
6.52166e-10
1.27436e-08
2.84435e-08
9.35697e-09
9.61075e-09
2.10803e-08
1.67524e-08
1.08515e-08
1.05839e-08
1.91759e-08
1.54286e-08
2.22035e-08
9.01034e-10
2.57678e-08
1.1438e-08
2.83869e-08
1.58902e-08
4.68478e-10
8.00123e-09
9.27274e-09
9.62269e-09
7.87362e-10
7.74832e-10
4.05898e-10
1.67002e-08
1.53651e-08
1.1046e-09
6.03623e-10
2.16506e-08
5.5534e-10
5.43235e-10
3.29577e-10
1.33492e-08
9.37551e-10
2.87205e-08
6.92862e-10
1.49899e-08
1.73722e-08
3.55628e-08
1.43768e-08
1.10262e-08
6.75598e-09
3.78666e-08
2.05307e-08
9.84962e-10
3.04425e-08
1.42477e-08
1.24265e-08
6.35163e-09
3.53213e-08
2.96573e-10
9.66621e-10
9.58355e-10
2.41049e-08
4.71263e-10
1.37461e-08
1.18547e-08
5.49686e-09
1.0287e-08
3.28082e-08
7.33626e-10
5.86907e-10
1.96018e-09
6.17063e-10
9.90564e-09
8.21838e-10
1.80907e-08
3.95659e-10
4.87907e-10
1.4757e-08
1.43376e-08
1.1483e-08
5.68375e-09
5.01642e-08
1.9553e-08
7.70331e-09
1.78382e-08
8.79498e-10
8.00924e-09
2.42552e-08
1.31856e-08
7.96953e-10
6.41711e-10
1.0314e-09
1.49481e-08
1.38508e-08
5.17811e-10
1.1353e-08
3.63084e-08
7.30938e-10
4.2108e-08
7.44468e-10
1.30501e-08
9.38247e-09
8.26529e-09
1.24121e-08
2.75486e-08
8.20888e-09
8.95217e-09
7.98249e-09
1.19222e-08
2.77343e-08
4.99074e-10
6.79282e-10
7.95051e-10
2.37183e-08
2.45991e-08
5.83752e-10
6.00029e-10
2.00355e-08
3.33072e-08
1.39457e-08
2.71774e-08
9.9698e-09
1.98044e-08
9.36423e-09
9.55916e-10
4.43535e-08
6.19959e-10
1.15603e-08
1.9964e-08
5.98847e-10
9.69857e-09
2.61844e-08
1.45353e-08
3.54676e-08
1.25356e-08
7.41567e-10
2.97431e-08
1.19116e-08
3.38201e-08
1.34174e-08
1.03461e-08
6.30501e-10
3.06174e-08
2.06923e-08
1.88561e-08
2.50737e-08
1.11097e-08
3.77603e-08
1.57371e-08
2.08642e-08
9.93311e-09
1.19971e-08
3.50635e-08
2.98132e-08
3.07838e-08
5.64858e-10
8.60907e-10
7.65053e-10
2.32284e-08
6.43417e-10
5.62265e-10
1.09749e-08
6.82252e-10
4.30497e-10
3.83121e-08
5.75534e-09
1.90005e-08
8.68863e-10
9.17692e-09
1.26701e-08
6.80347e-10
9.76062e-09
1.74661e-08
3.19921e-09
2.32478e-10
9.94042e-09
2.67836e-10
4.43397e-10
1.14281e-08
1.12212e-08
1.04513e-08
3.92274e-08
5.54486e-10
2.67166e-08
8.89259e-09
2.31599e-08
1.93831e-08
2.18546e-08
3.11419e-08
3.81912e-09
2.92322e-08
2.10591e-09
3.95819e-09
6.36345e-09
7.62681e-10
1.7849e-08
1.38128e-09
1.53165e-08
1.27095e-08
6.20377e-10
8.10482e-09
1.23927e-09
1.73972e-08
1.3949e-08
1.46679e-08
1.12311e-08
3.29647e-08
4.03742e-08
2.56662e-08
1.24647e-08
3.23582e-08
2.63398e-08
1.03224e-08
1.65489e-08
2.13135e-08
3.18191e-08
3.96189e-10
3.76916e-08
6.7436e-09
3.45461e-08
7.90188e-09
1.8378e-08
8.47526e-09
1.26571e-08
2.50038e-08
1.66599e-08
3.47708e-08
1.89286e-08
1.21756e-08
1.05767e-08
1.45739e-08
1.79516e-08
6.29699e-09
1.87714e-08
1.48783e-08
2.46414e-08
2.74235e-08
1.10649e-08
2.7251e-08
1.68978e-08
1.46229e-08
1.03873e-08
1.91484e-08
4.50911e-08
2.05218e-08
2.06939e-08
6.83852e-09
2.63044e-08
3.66917e-08
3.59563e-08
1.24565e-08
1.94429e-08
3.53398e-08
1.23416e-08
4.87908e-08
3.96201e-08
4.02754e-08
1.39706e-08
3.76715e-08
1.6595e-08
1.8416e-08
7.81852e-09
6.95465e-10
5.63013e-10
4.50793e-10
1.40606e-08
1.71643e-08
1.25709e-09
4.34015e-10
4.00517e-08
4.9945e-10
2.25172e-08
1.64251e-08
1.22498e-08
8.09048e-09
2.60849e-08
1.04884e-08
2.7708e-08
2.09458e-08
1.04961e-08
1.08658e-08
1.00621e-08
6.45957e-10
1.91755e-08
1.03156e-09
1.37882e-08
2.59702e-08
1.92496e-08
1.78602e-08
1.55338e-08
1.39346e-08
1.19543e-08
6.31771e-09
5.88377e-10
1.95207e-08
2.16141e-08
1.49901e-08
2.46801e-08
1.24821e-08
1.7176e-08
3.0198e-08
2.08996e-08
4.34918e-10
3.61646e-08
2.14761e-08
1.89452e-08
8.42047e-09
2.68293e-08
7.14886e-09
8.87257e-09
3.53049e-08
4.68046e-10
4.24165e-08
8.52281e-09
3.11286e-08
9.25049e-09
9.63004e-09
2.21546e-08
2.2373e-08
9.35105e-09
1.44362e-08
3.3265e-10
2.69747e-08
4.12761e-10
1.09739e-09
1.03763e-08
2.15484e-08
9.08982e-10
4.75927e-10
1.18003e-08
3.67833e-10
4.95163e-10
1.93013e-08
1.51205e-08
1.88291e-08
1.4068e-08
1.36769e-08
3.82976e-08
2.41565e-08
1.67034e-08
1.46332e-08
8.84278e-09
1.38412e-08
1.34971e-08
1.87301e-08
3.01467e-08
3.05745e-08
3.54755e-10
1.63569e-08
1.05403e-08
9.0274e-09
9.7705e-09
9.24981e-10
1.46293e-08
9.49044e-09
7.05744e-10
7.55657e-10
6.37004e-10
5.41827e-10
9.51028e-09
4.42486e-08
1.26785e-08
3.88762e-08
1.07714e-08
1.32554e-08
4.32669e-10
6.7209e-09
1.5631e-08
2.57735e-08
4.13557e-10
1.83077e-08
2.22066e-08
1.0783e-08
6.05993e-10
3.42608e-08
1.5513e-08
4.73818e-10
1.79942e-08
9.90132e-09
2.82664e-08
7.83543e-09
3.05329e-08
4.63712e-08
1.2916e-08
3.9435e-10
1.55034e-08
5.79144e-10
1.79017e-08
5.42548e-10
4.03414e-08
2.61358e-08
2.47547e-08
3.56694e-08
7.08008e-09
1.72778e-08
1.24798e-08
3.47343e-08
1.15099e-08
1.24337e-08
2.56236e-09
1.82339e-08
1.5492e-08
1.53729e-08
2.54859e-08
2.24415e-08
2.08031e-08
1.83129e-08
2.65922e-08
6.53526e-09
3.29376e-10
1.45782e-08
1.14136e-08
5.15279e-10
1.77131e-08
3.19447e-08
2.00826e-08
7.06443e-09
8.32262e-09
5.1593e-08
9.1484e-10
2.20871e-08
2.85899e-08
6.26247e-10
5.31648e-10
2.41104e-08
4.63112e-10
9.23603e-09
3.20954e-08
9.98957e-09
8.37881e-09
6.80674e-10
3.27842e-09
1.99444e-08
6.33819e-10
1.74246e-08
6.6603e-10
2.79687e-08
8.23044e-09
8.59229e-09
9.14219e-09
1.85264e-08
8.66918e-10
6.35486e-10
2.44253e-10
5.34653e-10
1.74091e-08
8.16422e-10
7.65171e-10
6.34522e-10
3.58133e-10
3.64105e-08
1.29814e-08
9.78921e-09
8.05774e-09
2.02313e-08
4.08092e-10
1.32034e-09
1.07702e-08
1.50553e-08
3.92204e-08
1.21238e-08
1.10673e-08
1.04169e-08
1.42006e-08
2.7134e-08
1.39129e-08
3.22909e-08
1.19679e-08
1.32888e-08
2.40184e-08
1.93239e-08
7.72539e-10
7.74853e-10
1.09177e-08
3.82358e-08
2.11446e-08
7.52625e-09
2.16025e-08
1.45771e-08
1.14585e-08
1.46586e-08
2.03134e-08
1.23227e-08
1.73685e-08
8.07473e-10
1.07523e-08
1.24146e-08
2.98476e-08
7.93536e-09
2.77909e-08
1.36823e-08
1.68689e-08
2.51187e-08
1.56904e-08
5.3341e-10
1.96942e-08
1.83756e-08
1.72075e-08
2.17926e-08
1.39875e-08
9.47078e-09
6.50426e-09
2.57054e-08
1.28747e-08
1.57253e-08
1.06626e-08
7.21304e-10
4.87119e-10
9.53778e-10
6.93088e-09
5.23011e-10
2.80503e-08
1.39887e-08
9.59506e-09
1.12522e-08
5.61676e-10
1.06479e-08
3.23607e-08
3.70489e-08
2.91976e-08
3.81432e-08
9.18005e-09
6.2144e-10
6.10948e-10
4.04353e-08
1.74748e-08
2.28534e-08
1.87949e-08
3.61466e-08
2.57373e-08
3.05996e-08
1.40295e-08
1.5719e-08
3.91493e-08
1.18987e-08
8.37443e-10
2.0309e-08
3.46461e-08
2.29115e-08
3.93267e-10
2.31109e-08
5.48137e-08
5.40899e-10
1.17905e-08
2.58891e-10
1.38738e-08
4.14262e-10
1.3405e-09
9.71389e-09
2.58438e-08
1.81949e-08
1.44874e-08
4.69785e-10
1.64565e-08
2.23603e-08
1.31748e-08
5.67654e-10
1.31782e-08
1.2384e-08
1.73811e-08
7.39944e-10
1.98828e-08
3.09648e-08
3.16275e-08
8.67927e-09
1.6714e-08
1.51899e-08
8.63483e-09
2.47898e-08
1.69122e-08
9.04315e-09
7.34324e-10
1.0448e-08
7.95718e-10
2.27998e-08
2.1903e-08
6.69254e-09
7.67385e-09
1.10721e-09
2.24023e-08
1.81364e-08
1.44542e-08
1.59581e-08
3.05328e-08
3.24037e-10
1.65694e-08
6.15214e-09
4.31754e-08
1.91869e-08
2.12359e-08
9.78819e-10
1.06305e-08
4.1891e-08
4.27552e-08
4.96943e-08
2.5675e-08
9.98217e-09
2.27521e-08
2.39323e-08
1.49237e-08
6.35151e-09
1.30676e-08
3.54396e-08
1.55965e-08
4.35314e-08
2.59912e-08
4.65741e-10
2.37517e-08
3.7664e-08
8.52219e-10
8.32825e-09
2.37499e-08
3.41286e-08
3.7216e-08
9.20286e-09
2.51027e-08
1.14197e-09
1.83433e-08
9.56426e-10
7.82936e-09
2.238e-08
1.32234e-08
1.02213e-08
9.48054e-10
1.21879e-08
3.27482e-08
6.3198e-10
2.68513e-08
7.10834e-10
2.3965e-08
1.61253e-08
7.23122e-09
2.92197e-10
1.83491e-08
3.42553e-08
1.43496e-08
1.89017e-08
9.38217e-09
1.4833e-08
3.64199e-10
8.44869e-10
5.27287e-08
1.10962e-08
3.79208e-08
1.69121e-08
4.15916e-10
6.30031e-10
1.44595e-09
6.024e-10
1.74928e-08
5.00513e-10
4.45574e-10
1.17675e-08
1.33849e-08
1.01874e-09
9.66541e-09
2.21258e-08
8.82161e-09
5.0744e-08
4.40326e-08
1.66594e-08
2.59884e-08
1.0398e-08
1.06449e-08
2.94672e-08
1.08086e-08
5.77427e-10
1.5456e-08
2.42892e-08
1.96688e-08
1.83879e-08
3.69874e-08
6.11826e-10
1.21257e-08
3.36302e-08
1.06697e-08
2.79267e-08
2.0941e-08
9.71001e-10
2.31743e-08
2.24027e-08
8.51859e-09
2.16971e-08
1.32788e-08
2.72434e-08
2.6968e-08
4.08084e-08
2.01422e-08
2.95508e-08
4.44987e-10
2.16237e-08
6.80528e-10
5.01436e-10
1.69881e-08
5.62894e-10
1.35466e-08
1.46576e-08
4.93919e-09
5.47897e-08
1.47192e-08
1.37026e-08
1.04559e-09
1.98676e-08
2.24885e-08
4.01004e-08
4.54129e-08
3.28737e-08
3.48851e-08
9.65665e-10
1.81726e-08
8.44384e-10
5.5222e-10
4.7997e-10
2.87945e-08
2.13412e-08
6.17516e-10
6.78291e-10
7.82387e-10
1.56156e-08
1.80882e-08
1.50436e-08
1.25836e-08
1.34901e-08
3.36644e-10
1.89008e-08
2.92822e-08
5.08606e-10
1.86469e-08
8.79171e-10
1.09194e-08
1.66201e-08
3.05008e-08
4.03794e-08
2.56652e-08
4.75536e-10
1.05535e-08
5.82011e-10
3.90904e-08
3.59885e-10
1.52376e-08
1.89136e-08
1.21442e-08
1.52688e-09
1.28009e-08
1.08681e-08
1.05518e-08
1.16906e-08
7.57422e-10
1.66378e-08
9.47014e-09
9.89367e-09
7.66303e-09
3.98853e-08
1.46529e-08
1.48632e-08
1.47927e-08
3.54607e-08
2.24381e-08
3.30766e-08
1.34572e-08
1.63366e-08
2.92443e-08
1.0485e-09
3.61597e-08
1.14786e-08
3.80024e-10
2.69827e-08
1.19494e-08
3.087e-08
1.75821e-08
4.14076e-10
3.96651e-08
2.6019e-08
2.83276e-08
1.73591e-08
9.59195e-09
4.46582e-08
1.64287e-08
4.09689e-08
1.42434e-08
6.40844e-09
2.08255e-08
2.86975e-08
6.69341e-09
3.77749e-08
3.52723e-10
2.35524e-08
4.84432e-10
1.12556e-08
2.31535e-08
1.07004e-08
2.50943e-08
2.07839e-08
2.09049e-08
1.65672e-08
2.34278e-08
1.50949e-08
6.33465e-10
3.12418e-08
9.07664e-10
2.35286e-08
2.41132e-08
1.67846e-08
3.6293e-08
2.8567e-09
1.66765e-08
3.04499e-08
3.91063e-10
1.13413e-08
1.5001e-08
1.75831e-08
1.09584e-08
2.57258e-08
2.10808e-08
2.91551e-08
1.29115e-08
3.72581e-08
1.24828e-08
2.42844e-08
1.02835e-09
4.36085e-10
5.77638e-10
5.06937e-10
7.73361e-10
2.89695e-08
3.73177e-08
2.32985e-08
7.22465e-09
1.44161e-08
1.28412e-08
6.73501e-10
2.37e-08
9.42688e-10
1.79042e-09
1.36901e-08
6.62689e-09
9.30987e-09
4.91717e-10
5.46676e-10
1.92452e-08
4.44213e-10
3.00569e-08
2.40787e-08
7.83406e-09
6.63605e-10
2.37532e-08
6.03818e-10
1.35622e-08
8.88299e-09
6.13041e-10
1.09051e-08
1.40147e-08
1.30453e-08
6.09999e-10
1.39557e-08
3.05852e-08
1.71848e-08
6.5568e-10
3.26552e-10
4.07189e-10
2.88298e-10
4.99585e-10
8.42422e-10
1.77243e-08
1.28005e-08
1.07617e-08
9.51435e-10
8.20962e-09
4.10627e-10
1.00864e-08
8.08233e-09
3.65659e-08
2.71612e-08
1.80753e-08
1.03569e-08
2.06746e-08
1.07372e-08
4.66053e-10
2.31812e-08
2.80832e-08
4.4856e-08
2.62794e-08
2.67825e-08
7.99034e-10
5.69999e-10
1.1758e-08
3.13854e-08
3.96855e-08
3.09346e-08
2.80906e-08
1.93198e-08
1.57803e-08
1.19334e-08
1.65618e-08
2.72242e-08
3.08272e-08
3.58117e-08
1.27473e-08
3.53731e-08
7.93062e-09
2.07164e-08
1.22652e-08
2.29215e-08
2.19991e-08
9.70342e-09
1.9712e-08
8.31363e-10
5.92183e-09
2.09709e-08
3.97961e-08
2.37791e-08
2.84106e-08
1.22439e-08
2.69023e-08
3.01167e-08
1.5582e-08
1.69982e-08
2.20805e-08
1.34688e-08
1.84313e-08
4.20035e-08
1.65321e-08
2.56263e-10
2.66049e-08
4.04629e-08
4.39258e-10
1.40084e-08
1.22112e-08
1.30799e-08
1.27763e-08
2.05365e-08
1.05708e-08
2.35117e-08
4.54685e-10
1.91578e-08
2.57976e-08
2.20748e-08
3.17063e-08
1.46817e-08
5.32416e-08
3.98729e-08
1.37753e-08
1.79438e-08
1.59069e-08
4.62804e-10
4.04376e-10
2.05713e-08
1.21452e-08
1.31098e-08
1.48305e-08
1.27263e-08
1.00709e-08
1.31268e-08
4.29771e-08
1.74307e-08
1.71437e-08
1.91741e-08
3.34187e-08
5.08513e-08
3.69618e-08
3.39362e-10
9.41288e-10
1.16765e-09
5.47036e-09
1.47027e-08
1.56535e-08
3.24617e-08
1.88007e-08
6.91828e-10
1.16768e-08
1.08913e-08
9.49757e-09
1.20599e-08
1.42661e-08
7.41947e-10
2.39783e-08
1.2095e-08
7.87071e-10
1.06952e-08
1.22091e-08
2.07612e-08
2.59157e-08
1.38713e-08
1.5357e-08
2.02926e-08
2.847e-08
3.2108e-08
1.84279e-08
4.88569e-10
1.34779e-08
2.78292e-08
1.31168e-08
1.27401e-08
1.43989e-08
1.41193e-08
1.35456e-08
4.9712e-10
2.70848e-08
3.41179e-08
2.2314e-08
6.33898e-10
5.60936e-10
1.97899e-08
1.10746e-08
3.90827e-08
1.03231e-09
1.74971e-08
2.24088e-08
1.11024e-08
1.11161e-08
9.60658e-10
6.86794e-10
2.74229e-09
4.22115e-08
9.19757e-09
2.3734e-08
7.063e-10
1.02739e-08
1.0198e-08
3.15724e-08
2.82658e-08
2.38399e-08
2.62951e-08
3.06866e-08
1.72474e-08
9.64385e-09
1.16293e-08
1.74464e-08
9.53408e-09
3.09676e-08
2.09811e-08
3.43162e-08
4.063e-08
2.39662e-08
1.72996e-08
1.76811e-08
2.40285e-08
2.70681e-08
1.88647e-08
1.08137e-08
2.26939e-08
1.92232e-08
1.93811e-08
3.93038e-08
4.42796e-08
3.60138e-10
1.1851e-08
9.62797e-09
1.65743e-08
5.68615e-10
7.26892e-10
1.53014e-08
4.52128e-10
1.62194e-08
5.09876e-10
3.25162e-08
2.80744e-08
3.30205e-08
9.41772e-09
1.99131e-08
1.7079e-08
1.35631e-08
1.93178e-08
2.76603e-08
3.70954e-08
7.74705e-10
7.655e-10
2.91287e-08
1.62369e-08
1.61281e-08
7.94061e-10
1.12281e-08
1.30195e-08
2.07811e-08
1.43908e-08
1.4139e-08
6.55891e-10
9.10522e-09
2.12878e-08
1.58528e-08
2.93347e-10
9.05806e-09
1.74109e-08
2.25961e-08
4.22123e-08
3.11709e-08
2.56816e-08
5.86884e-10
7.64024e-10
3.95343e-08
1.25544e-08
3.70991e-08
5.68967e-10
1.15082e-08
2.05266e-08
1.34832e-08
1.90964e-08
4.11331e-10
1.57399e-08
1.97413e-08
3.22279e-08
9.53017e-09
6.24255e-10
2.65401e-08
3.59987e-08
1.81257e-08
7.74893e-10
3.81576e-10
2.50591e-08
9.66379e-10
2.80269e-08
2.76383e-08
3.74424e-10
1.0332e-09
3.40055e-08
2.79876e-08
7.65306e-10
2.96209e-08
1.95858e-08
3.86859e-08
1.20531e-08
2.10384e-08
8.79797e-10
7.40151e-10
3.79476e-10
1.19559e-08
2.466e-08
1.24479e-08
1.34758e-08
2.82409e-08
9.34031e-09
1.77003e-08
2.74389e-08
2.13182e-08
7.91947e-09
1.48251e-08
1.90644e-08
3.63836e-10
3.2701e-08
1.4355e-08
1.00256e-08
7.76519e-10
1.58523e-08
9.35777e-09
7.69541e-10
1.00268e-09
4.5002e-10
4.81378e-10
5.44597e-10
1.56478e-08
2.52749e-08
1.69442e-08
1.14427e-08
1.07899e-08
2.31558e-08
1.06985e-08
2.78807e-08
1.9534e-08
2.00464e-08
1.05316e-09
1.83281e-08
5.65252e-10
2.80981e-08
5.20124e-09
2.51369e-10
8.85896e-10
2.82105e-08
1.33848e-08
3.94852e-08
1.50751e-08
2.14808e-08
3.37708e-08
1.16685e-08
6.22164e-10
1.3334e-08
5.22549e-08
3.15512e-08
4.3488e-09
1.41889e-08
4.29664e-08
2.0159e-08
2.29609e-08
1.25646e-08
5.14657e-10
1.84306e-08
1.52403e-08
1.2049e-08
1.08358e-08
1.16552e-08
1.25958e-08
2.29444e-08
2.14678e-08
2.1514e-08
3.49122e-08
2.83378e-08
2.73416e-08
2.72142e-08
2.87549e-08
2.82543e-08
5.15708e-10
1.93946e-08
1.39213e-08
7.27217e-09
1.10645e-08
1.16328e-08
1.84339e-08
1.58901e-08
3.24834e-08
2.20283e-08
1.71844e-08
4.59296e-08
1.99067e-08
4.64909e-08
1.19557e-08
1.78767e-08
2.02171e-08
3.34944e-08
4.65977e-08
1.3428e-08
4.39761e-10
1.0618e-08
2.39336e-08
3.99391e-10
1.43632e-08
8.83217e-09
1.49129e-08
9.73339e-09
2.92308e-08
4.31879e-09
1.09495e-08
6.8013e-10
2.78122e-08
3.26329e-10
1.62303e-08
1.48482e-08
3.76936e-10
3.74353e-08
2.12989e-08
1.3101e-08
2.36907e-08
7.30679e-10
2.74258e-08
4.45289e-10
2.13787e-08
2.06666e-08
3.6588e-08
1.24846e-08
2.13348e-08
9.74637e-09
2.5298e-08
2.192e-08
4.52699e-08
3.48257e-08
1.73691e-08
1.09454e-08
1.44323e-08
1.18699e-09
3.30315e-08
2.12568e-08
1.45653e-08
3.88705e-10
1.58331e-08
8.30949e-10
3.05732e-08
1.54979e-08
1.11487e-08
1.86253e-08
7.5919e-10
6.32789e-10
4.85463e-10
9.56436e-10
3.45637e-10
1.458e-08
1.06445e-08
7.45131e-10
7.70161e-09
1.85604e-08
2.03732e-08
3.51254e-08
1.39066e-08
1.36715e-08
1.97272e-09
7.14619e-10
1.14836e-08
1.18744e-08
3.37982e-10
8.74892e-09
1.27306e-08
4.08327e-09
4.55796e-10
2.0643e-08
1.56695e-08
1.46644e-08
2.87793e-08
5.32117e-10
8.25688e-09
4.00773e-09
4.94345e-10
9.6249e-09
1.19038e-08
1.8835e-08
6.48273e-10
2.07947e-08
1.02781e-08
9.38214e-09
3.43423e-08
6.38891e-10
1.47051e-08
8.34748e-10
1.50207e-08
4.40458e-10
6.85469e-10
6.52654e-09
3.34294e-09
2.56039e-08
7.8359e-09
2.25185e-08
6.29606e-10
3.34718e-08
1.98178e-08
2.91582e-08
1.71126e-08
1.40315e-08
1.40481e-08
3.53417e-08
1.13758e-08
2.30274e-08
1.29734e-08
4.06295e-08
4.95235e-10
1.47751e-08
1.84036e-08
7.12787e-10
1.75909e-08
9.0792e-10
2.63067e-08
2.90592e-08
1.37815e-08
7.88242e-10
7.96497e-10
1.09742e-08
4.2119e-10
1.2976e-08
1.72804e-08
5.78356e-10
3.87007e-08
7.88039e-10
3.4046e-08
4.38179e-10
2.5083e-08
1.36517e-08
2.71992e-08
2.24558e-08
3.25406e-08
3.8886e-08
1.60331e-08
1.96206e-08
7.63603e-10
8.91142e-09
8.59502e-09
3.07476e-08
1.23824e-08
5.22975e-08
1.69394e-08
3.54469e-08
1.33255e-08
1.36593e-08
6.69839e-10
3.3279e-08
1.3117e-08
1.1392e-08
2.90253e-08
2.0763e-08
4.44181e-10
3.83578e-10
3.23064e-08
2.22831e-08
2.32247e-08
9.80012e-09
3.28254e-08
8.96546e-09
6.27635e-10
4.36555e-10
1.66865e-08
4.00745e-10
8.59581e-10
1.81125e-08
3.00688e-08
2.2068e-08
9.1393e-09
2.23132e-08
1.33784e-08
1.98788e-08
2.07326e-08
1.99321e-08
1.42931e-08
2.11849e-08
1.57701e-08
2.69083e-08
1.52033e-08
3.05186e-08
1.97194e-08
1.4703e-08
7.89149e-09
1.42154e-09
2.92175e-08
6.46899e-10
9.44212e-09
2.18525e-08
2.05545e-08
1.37593e-08
5.01386e-10
1.77561e-08
1.67283e-08
1.56825e-08
2.45437e-08
2.63775e-08
4.48667e-08
1.58999e-08
4.00156e-08
1.25215e-08
4.54429e-10
3.50662e-08
5.25048e-08
1.56621e-08
3.93418e-08
1.91473e-08
3.15302e-08
4.32232e-08
3.84372e-10
1.94581e-08
1.16863e-09
4.19684e-08
1.88252e-08
3.35291e-08
1.11506e-08
3.6249e-10
1.96999e-08
4.38496e-10
7.83068e-09
3.79582e-08
2.7746e-08
1.48273e-08
3.47704e-08
8.81315e-09
5.42246e-10
5.35503e-10
2.95619e-08
1.66956e-08
4.86586e-10
1.1875e-08
3.88838e-10
1.38374e-08
1.30824e-08
2.83484e-08
4.08095e-10
2.01995e-08
1.60029e-08
2.51155e-08
1.66865e-08
1.75749e-08
1.48373e-08
3.26452e-08
4.30893e-10
8.66456e-10
1.22812e-08
2.00641e-08
2.70086e-09
8.14754e-10
5.61492e-10
1.59817e-08
4.00553e-08
1.21451e-08
4.50045e-08
4.7498e-10
3.15734e-08
8.1727e-10
1.83259e-08
4.24474e-08
3.1777e-10
8.31545e-10
5.0872e-10
2.47321e-08
1.02851e-08
1.12245e-08
8.56278e-09
2.28236e-08
4.45819e-10
3.01222e-10
1.90419e-08
5.57434e-10
9.35097e-09
7.33458e-10
1.27817e-08
6.18723e-10
1.17847e-08
2.03073e-08
1.4293e-08
4.67709e-10
1.71786e-08
8.9291e-09
1.13685e-09
3.26314e-08
9.82818e-09
4.79446e-10
1.13382e-08
1.10346e-08
9.21482e-09
2.01691e-08
1.17071e-08
1.50227e-08
3.96233e-08
2.75502e-08
1.38902e-08
1.79081e-08
3.42482e-08
1.03383e-08
2.88541e-08
2.43806e-08
1.05613e-08
2.50566e-08
5.73e-10
1.4921e-08
5.14568e-10
1.86612e-08
6.52673e-10
9.31308e-10
7.70546e-09
3.24649e-08
2.51325e-08
1.64209e-08
1.42829e-08
3.25557e-08
1.07493e-08
1.09071e-09
2.60868e-08
4.57047e-10
4.7543e-08
3.66096e-08
1.28023e-08
2.31486e-08
1.18455e-08
3.12047e-08
1.04796e-08
1.1512e-08
3.71147e-08
5.24705e-10
1.39852e-09
1.26316e-08
1.0775e-09
1.66649e-08
3.56775e-08
1.62327e-08
1.66708e-08
2.14914e-08
1.67209e-08
3.87109e-08
3.30585e-10
1.13505e-08
3.57568e-08
1.10383e-08
1.33727e-08
3.48222e-08
3.9634e-10
1.22146e-08
3.63398e-08
4.44569e-08
3.21598e-08
3.09887e-08
3.14642e-08
9.55162e-09
8.89105e-09
3.71752e-08
1.00872e-08
2.49063e-08
6.62481e-10
2.88201e-08
7.73754e-09
2.44429e-08
2.53867e-08
1.91246e-08
1.24971e-08
1.47678e-08
1.47476e-08
1.49269e-08
3.41419e-08
5.05524e-10
2.2578e-08
2.62499e-08
2.25264e-08
2.27764e-08
2.4552e-08
1.36695e-08
1.3118e-08
1.47814e-08
5.00025e-10
2.63342e-08
2.49595e-08
1.52211e-08
2.69732e-08
1.43302e-08
3.25261e-08
1.49679e-08
1.58318e-08
3.95177e-08
1.14153e-08
7.47772e-09
1.16156e-08
1.41054e-08
1.22691e-08
2.08144e-08
1.91682e-08
1.78334e-08
4.12563e-10
1.54362e-08
3.74929e-08
2.60344e-08
2.44848e-08
1.09293e-08
2.17409e-08
2.412e-08
1.94606e-08
3.39955e-10
6.89072e-10
1.61092e-08
2.78551e-08
1.78975e-08
1.61802e-08
7.53029e-10
1.94014e-08
1.6903e-08
7.29349e-09
1.38182e-08
3.03847e-08
2.04825e-08
1.96633e-08
2.17254e-08
1.41569e-08
1.82099e-08
7.54937e-09
1.16656e-09
3.34146e-08
1.71023e-08
7.10286e-10
2.1569e-08
4.16068e-08
6.89977e-09
7.20442e-10
3.18901e-08
3.24053e-08
2.05756e-08
2.00397e-08
6.12184e-10
1.61351e-09
1.43988e-08
7.02848e-10
2.19835e-08
2.89208e-08
2.27832e-08
1.02226e-09
1.2277e-08
1.0297e-09
3.57498e-08
6.95719e-10
8.01829e-10
9.37604e-09
1.30801e-08
1.68393e-08
7.64806e-10
1.89333e-08
1.4907e-08
1.59548e-08
3.71874e-08
1.13503e-09
1.96864e-08
2.00525e-08
2.52879e-08
1.987e-08
3.53776e-09
1.55947e-08
1.3815e-08
1.16635e-08
2.40584e-08
3.27808e-08
7.95191e-09
4.06333e-08
2.8051e-08
3.33723e-08
1.08908e-09
7.7872e-10
9.17231e-10
2.71244e-08
3.90078e-10
1.09727e-08
1.79328e-08
1.19348e-08
4.37701e-10
8.51737e-10
9.91361e-09
1.42192e-08
1.22547e-09
9.52385e-09
9.73192e-09
1.07203e-08
1.26968e-08
1.70758e-08
3.02669e-08
9.82591e-09
1.47014e-08
3.1952e-08
1.32546e-08
9.56305e-09
1.45915e-08
3.49595e-08
2.96947e-08
2.16045e-08
5.50048e-10
1.33447e-08
4.65592e-09
1.63921e-08
1.58583e-08
4.62853e-10
1.59466e-08
2.72239e-08
1.27733e-08
1.69358e-08
1.10569e-09
4.90647e-08
5.15366e-09
4.20848e-08
3.33573e-08
1.57207e-08
1.27975e-08
3.36253e-10
1.99072e-08
4.61481e-10
4.81282e-10
1.25377e-08
3.86578e-08
2.06339e-08
3.132e-08
1.98155e-08
3.60905e-08
3.29545e-08
4.32131e-08
2.04107e-08
3.36858e-08
2.00793e-08
4.38458e-10
1.44724e-08
6.50397e-09
5.79915e-10
1.38044e-08
2.0214e-08
3.11913e-08
3.34441e-09
2.02915e-08
8.69468e-10
1.28505e-08
1.96701e-08
1.83817e-09
4.6262e-08
1.17725e-09
2.72995e-08
3.31661e-08
2.22424e-08
2.57701e-08
3.48624e-08
1.15156e-08
1.22695e-08
2.93142e-08
1.1783e-08
3.26728e-08
3.23682e-08
3.57524e-08
3.7951e-08
8.52139e-09
3.54868e-09
1.8355e-08
3.46896e-08
2.16721e-08
4.57636e-08
4.00865e-08
2.07908e-08
5.04225e-10
1.26696e-08
7.87654e-09
3.01491e-08
1.22577e-08
4.08933e-08
3.08888e-08
6.146e-10
1.49108e-08
1.486e-08
1.87369e-08
2.85565e-08
2.34217e-08
2.65369e-08
1.16536e-09
2.96461e-08
3.76632e-08
1.0122e-08
1.95751e-08
8.3115e-10
1.02737e-09
7.44092e-10
1.04404e-09
3.37183e-08
2.32956e-08
1.26929e-08
5.64588e-10
1.93569e-08
2.22333e-08
2.03541e-08
7.9358e-09
1.97347e-08
1.22343e-08
1.94416e-08
2.30424e-08
2.1939e-08
4.12098e-08
1.87651e-08
3.96063e-08
7.4417e-09
1.30865e-08
2.38012e-08
1.14416e-08
1.80748e-08
7.44738e-10
1.04591e-08
6.90178e-10
1.41025e-08
8.99677e-09
2.1327e-08
7.95077e-10
1.08866e-08
5.19871e-08
7.18939e-10
1.73044e-08
1.27507e-08
1.48903e-08
1.05459e-08
1.49319e-08
8.63175e-09
1.73941e-08
2.79742e-08
9.30678e-09
2.19931e-08
7.01926e-10
7.89762e-10
1.55564e-08
8.82122e-10
2.06305e-08
7.5323e-10
6.46143e-10
1.49493e-08
9.70277e-10
1.29234e-08
7.33175e-10
1.12395e-08
5.9815e-10
3.17821e-10
3.05594e-08
3.03455e-08
1.1922e-08
1.2297e-08
6.2499e-10
1.41736e-08
6.28408e-10
1.32663e-08
9.98222e-09
1.58556e-08
2.27129e-08
1.22315e-08
6.17122e-08
1.72965e-08
3.56085e-08
3.67672e-10
7.85815e-10
4.50697e-10
2.82693e-08
2.35998e-08
8.69815e-09
1.34152e-08
6.91128e-10
1.31464e-08
1.20367e-08
1.47757e-09
1.02776e-08
8.89554e-09
7.70816e-09
8.36371e-09
1.44472e-08
2.59572e-08
8.88559e-10
1.45817e-08
2.21253e-08
4.12511e-10
2.32224e-08
6.16331e-10
2.48315e-08
1.33237e-08
1.41333e-08
1.82934e-08
1.62804e-08
3.45327e-08
1.32939e-08
1.23177e-08
3.15754e-08
3.03958e-08
4.39384e-08
1.82327e-08
3.10843e-08
1.99308e-08
2.93664e-08
3.96492e-08
1.05744e-08
1.26165e-08
2.80131e-08
1.94901e-08
2.11205e-08
1.64862e-08
1.28707e-08
6.88132e-10
4.46766e-08
1.67283e-08
1.27274e-08
3.07857e-08
4.65976e-09
9.26999e-09
4.32712e-09
1.26056e-08
1.17171e-08
2.59493e-08
6.30877e-10
7.3209e-10
1.45616e-08
1.43382e-08
2.66836e-08
2.99279e-08
3.681e-08
1.89772e-08
2.47391e-08
3.64744e-08
1.83593e-08
1.2715e-08
1.01882e-08
2.55797e-08
3.82575e-08
3.6273e-08
6.52518e-10
1.55422e-08
1.85906e-08
6.67225e-09
1.16498e-08
2.55551e-08
1.73651e-08
7.61206e-10
1.40851e-08
1.83809e-08
1.61651e-08
1.64676e-08
5.44438e-10
1.90229e-08
1.95446e-08
4.07555e-08
2.83066e-08
1.32382e-08
1.30686e-08
1.07026e-08
1.60042e-08
2.67541e-08
2.7521e-08
1.48714e-08
7.53263e-10
2.12326e-08
1.78124e-08
1.10544e-08
1.18728e-08
1.50782e-08
1.53593e-08
2.2659e-08
1.13917e-08
2.8316e-08
6.83397e-10
1.43206e-08
1.31356e-08
5.73883e-10
6.16025e-10
1.62525e-08