# vtk DataFile Version 2.0
DGS printing
ASCII
DATASET UNSTRUCTURED_GRID
POINTS  144  floats
21.26083 20.90860 20.10180 21.24670 20.90860 20.10133 21.24717 20.90860 20.08720 
21.26130 20.90860 20.08767 21.26083 19.90860 20.10180 21.24670 19.90860 20.10133 
21.24717 19.90860 20.08720 21.26130 19.90860 20.08767 21.25367 20.90860 20.10449 
21.24401 20.90860 20.09417 21.25433 20.90860 20.08451 21.26399 20.90860 20.09483 
21.25367 19.90860 20.10449 21.24401 19.90860 20.09417 21.25433 19.90860 20.08451 
21.26399 19.90860 20.09483 21.26083 20.40860 20.10180 21.24670 20.40860 20.10133 
21.24717 20.40860 20.08720 21.26130 20.40860 20.08767 21.26399 20.40860 20.09483 
21.24401 20.40860 20.09417 21.25367 20.40860 20.10449 21.25433 20.40860 20.08451 
21.25753 21.90860 20.12429 21.22421 21.90860 20.09803 21.25047 21.90860 20.06471 
21.28379 21.90860 20.09097 21.25753 20.90860 20.12429 21.22421 20.90860 20.09803 
21.25047 20.90860 20.06471 21.28379 20.90860 20.09097 21.23543 21.90860 20.11806 
21.23044 21.90860 20.07593 21.27257 21.90860 20.07094 21.27756 21.90860 20.11307 
21.23543 20.90860 20.11806 21.23044 20.90860 20.07593 21.27257 20.90860 20.07094 
21.27756 20.90860 20.11307 21.25753 21.40860 20.12429 21.22421 21.40860 20.09803 
21.25047 21.40860 20.06471 21.28379 21.40860 20.09097 21.27756 21.40860 20.11307 
21.23044 21.40860 20.07593 21.23543 21.40860 20.11806 21.27257 21.40860 20.07094 
21.29688 22.90860 20.12022 21.27972 22.90860 20.05162 21.21112 22.90860 20.06878 
21.22828 22.90860 20.13738 21.29688 23.90860 20.12022 21.27972 23.90860 20.05162 
21.21112 23.90860 20.06878 21.22828 23.90860 20.13738 21.30251 22.90860 20.08237 
21.24187 22.90860 20.04599 21.20549 22.90860 20.10663 21.26613 22.90860 20.14301 
21.30251 23.90860 20.08237 21.24187 23.90860 20.04599 21.20549 23.90860 20.10663 
21.26613 23.90860 20.14301 21.29688 23.40860 20.12022 21.27972 23.40860 20.05162 
21.21112 23.40860 20.06878 21.22828 23.40860 20.13738 21.26613 23.40860 20.14301 
21.24187 23.40860 20.04599 21.30251 23.40860 20.08237 21.20549 23.40860 20.10663 
21.26455 23.90860 20.14338 21.30288 23.90860 20.08395 21.24345 23.90860 20.04562 
21.20512 23.90860 20.10505 21.26455 26.90860 20.14338 21.30288 26.90860 20.08395 
21.24345 26.90860 20.04562 21.20512 26.90860 20.10505 21.29602 23.90860 20.12160 
21.28110 23.90860 20.05248 21.21198 23.90860 20.06740 21.22690 23.90860 20.13652 
21.29602 26.90860 20.12160 21.28110 26.90860 20.05248 21.21198 26.90860 20.06740 
21.22690 26.90860 20.13652 21.26455 25.40860 20.14338 21.30288 25.40860 20.08395 
21.24345 25.40860 20.04562 21.20512 25.40860 20.10505 21.22690 25.40860 20.13652 
21.28110 25.40860 20.05248 21.29602 25.40860 20.12160 21.21198 25.40860 20.06740 
21.29038 27.22820 20.12880 21.28830 27.22820 20.05812 21.21762 27.22820 20.06020 
21.21970 27.22820 20.13088 21.29038 28.22820 20.12880 21.28830 28.22820 20.05812 
21.21762 28.22820 20.06020 21.21970 28.22820 20.13088 21.30398 27.22820 20.09303 
21.25253 27.22820 20.04452 21.20402 27.22820 20.09597 21.25547 27.22820 20.14448 
21.30398 28.22820 20.09303 21.25253 28.22820 20.04452 21.20402 28.22820 20.09597 
21.25547 28.22820 20.14448 21.29038 27.72820 20.12880 21.28830 27.72820 20.05812 
21.21762 27.72820 20.06020 21.21970 27.72820 20.13088 21.25547 27.72820 20.14448 
21.25253 27.72820 20.04452 21.30398 27.72820 20.09303 21.20402 27.72820 20.09597 
21.30251 28.53440 20.10663 21.26613 28.53440 20.04599 21.20549 28.53440 20.08237 
21.24187 28.53440 20.14301 21.30251 29.53440 20.10663 21.26613 29.53440 20.04599 
21.20549 29.53440 20.08237 21.24187 29.53440 20.14301 21.29688 28.53440 20.06878 
21.22828 28.53440 20.05162 21.21112 28.53440 20.12022 21.27972 28.53440 20.13738 
21.29688 29.53440 20.06878 21.22828 29.53440 20.05162 21.21112 29.53440 20.12022 
21.27972 29.53440 20.13738 21.30251 29.03440 20.10663 21.26613 29.03440 20.04599 
21.20549 29.03440 20.08237 21.24187 29.03440 20.14301 21.27972 29.03440 20.13738 
21.22828 29.03440 20.05162 21.29688 29.03440 20.06878 21.21112 29.03440 20.12022 
CELLS  6   150
24 0 1 2 3 4 5 6 7 8 9 10 11 12 13 14 15 16 17 18 19 20 21 22 23
24 24 25 26 27 28 29 30 31 32 33 34 35 36 37 38 39 40 41 42 43 44 45 46 47
24 48 49 50 51 52 53 54 55 56 57 58 59 60 61 62 63 64 65 66 67 68 69 70 71
24 72 73 74 75 76 77 78 79 80 81 82 83 84 85 86 87 88 89 90 91 92 93 94 95
24 96 97 98 99 100 101 102 103 104 105 106 107 108 109 110 111 112 113 114 115 116 117 118 119
24 120 121 122 123 124 125 126 127 128 129 130 131 132 133 134 135 136 137 138 139 140 141 142 143
CELL_TYPES  6 
33
33
33
33
33
33
CELL_DATA  6 
SCALARS node_id int 1 
LOOKUP_TABLE default
1
2
4
5
6
7
SCALARS average_vol_activity_bq_m3 double 1 
LOOKUP_TABLE default
1.50305e+00
2.61708e+00
1.20605e+02
3.17471e+01
5.78879e+00
2.70952e+00
SCALARS total_activity_bq double 1 
LOOKUP_TABLE default
4.72196e-04
7.39960e-03
9.47233e-01
7.48022e-01
4.54650e-02
2.12805e-02
SCALARS mc_error double 1 
LOOKUP_TABLE default
0.00000
0.00000
0.00190
0.00190
0.00190
0.00190
