# vtk DataFile Version 2.0
DGS printing
ASCII
DATASET UNSTRUCTURED_GRID
POINTS  144  floats
21.26213 20.90860 20.10032 21.24818 20.90860 20.10263 21.24587 20.90860 20.08868 
21.25982 20.90860 20.08637 21.26213 19.90860 20.10032 21.24818 19.90860 20.10263 
21.24587 19.90860 20.08868 21.25982 19.90860 20.08637 21.25563 20.90860 20.10437 
21.24413 20.90860 20.09613 21.25237 20.90860 20.08463 21.26387 20.90860 20.09287 
21.25563 19.90860 20.10437 21.24413 19.90860 20.09613 21.25237 19.90860 20.08463 
21.26387 19.90860 20.09287 21.26213 20.40860 20.10032 21.24818 20.40860 20.10263 
21.24587 20.40860 20.08868 21.25982 20.40860 20.08637 21.26387 20.40860 20.09287 
21.24413 20.40860 20.09613 21.25563 20.40860 20.10437 21.25237 20.40860 20.08463 
21.28231 21.90860 20.10442 21.24408 21.90860 20.12281 21.22569 21.90860 20.08458 
21.26392 21.90860 20.06619 21.28231 20.90860 20.10442 21.24408 20.90860 20.12281 
21.22569 20.90860 20.08458 21.26392 20.90860 20.06619 21.26700 21.90860 20.12154 
21.22696 21.90860 20.10750 21.24100 21.90860 20.06746 21.28104 21.90860 20.08150 
21.26700 20.90860 20.12154 21.22696 20.90860 20.10750 21.24100 20.90860 20.06746 
21.28104 20.90860 20.08150 21.28231 21.40860 20.10442 21.24408 21.40860 20.12281 
21.22569 21.40860 20.08458 21.26392 21.40860 20.06619 21.28104 21.40860 20.08150 
21.22696 21.40860 20.10750 21.26700 21.40860 20.12154 21.24100 21.40860 20.06746 
21.25775 22.90860 20.14436 21.30386 22.90860 20.09075 21.25025 22.90860 20.04464 
21.20414 22.90860 20.09825 21.25775 23.90860 20.14436 21.30386 23.90860 20.09075 
21.25025 23.90860 20.04464 21.20414 23.90860 20.09825 21.29191 22.90860 20.12710 
21.28660 22.90860 20.05659 21.21609 22.90860 20.06190 21.22140 22.90860 20.13241 
21.29191 23.90860 20.12710 21.28660 23.90860 20.05659 21.21609 23.90860 20.06190 
21.22140 23.90860 20.13241 21.25775 23.40860 20.14436 21.30386 23.40860 20.09075 
21.25025 23.40860 20.04464 21.20414 23.40860 20.09825 21.22140 23.40860 20.13241 
21.28660 23.40860 20.05659 21.29191 23.40860 20.12710 21.21609 23.40860 20.06190 
21.29211 23.90860 20.12686 21.28636 23.90860 20.05639 21.21589 23.90860 20.06214 
21.22164 23.90860 20.13261 21.29211 26.90860 20.12686 21.28636 26.90860 20.05639 
21.21589 26.90860 20.06214 21.22164 26.90860 20.13261 21.30383 23.90860 20.09043 
21.24993 23.90860 20.04467 21.20417 23.90860 20.09857 21.25807 23.90860 20.14433 
21.30383 26.90860 20.09043 21.24993 26.90860 20.04467 21.20417 26.90860 20.09857 
21.25807 26.90860 20.14433 21.29211 25.40860 20.12686 21.28636 25.40860 20.05639 
21.21589 25.40860 20.06214 21.22164 25.40860 20.13261 21.25807 25.40860 20.14433 
21.24993 25.40860 20.04467 21.30383 25.40860 20.09043 21.20417 25.40860 20.09857 
21.30392 27.22820 20.09735 21.25685 27.22820 20.04458 21.20408 27.22820 20.09165 
21.25115 27.22820 20.14442 21.30392 28.22820 20.09735 21.25685 28.22820 20.04458 
21.20408 28.22820 20.09165 21.25115 28.22820 20.14442 21.29131 27.22820 20.06121 
21.22071 27.22820 20.05719 21.21669 27.22820 20.12779 21.28729 27.22820 20.13181 
21.29131 28.22820 20.06121 21.22071 28.22820 20.05719 21.21669 28.22820 20.12779 
21.28729 28.22820 20.13181 21.30392 27.72820 20.09735 21.25685 27.72820 20.04458 
21.20408 27.72820 20.09165 21.25115 27.72820 20.14442 21.28729 27.72820 20.13181 
21.22071 27.72820 20.05719 21.29131 27.72820 20.06121 21.21669 27.72820 20.12779 
21.29845 28.53440 20.11739 21.27689 28.53440 20.05005 21.20955 28.53440 20.07161 
21.23111 28.53440 20.13895 21.29845 29.53440 20.11739 21.27689 29.53440 20.05005 
21.20955 29.53440 20.07161 21.23111 29.53440 20.13895 21.30162 28.53440 20.07925 
21.23875 28.53440 20.04688 21.20638 28.53440 20.10975 21.26925 28.53440 20.14212 
21.30162 29.53440 20.07925 21.23875 29.53440 20.04688 21.20638 29.53440 20.10975 
21.26925 29.53440 20.14212 21.29845 29.03440 20.11739 21.27689 29.03440 20.05005 
21.20955 29.03440 20.07161 21.23111 29.03440 20.13895 21.26925 29.03440 20.14212 
21.23875 29.03440 20.04688 21.30162 29.03440 20.07925 21.20638 29.03440 20.10975 
CELLS  6   150
24 0 1 2 3 4 5 6 7 8 9 10 11 12 13 14 15 16 17 18 19 20 21 22 23
24 24 25 26 27 28 29 30 31 32 33 34 35 36 37 38 39 40 41 42 43 44 45 46 47
24 48 49 50 51 52 53 54 55 56 57 58 59 60 61 62 63 64 65 66 67 68 69 70 71
24 72 73 74 75 76 77 78 79 80 81 82 83 84 85 86 87 88 89 90 91 92 93 94 95
24 96 97 98 99 100 101 102 103 104 105 106 107 108 109 110 111 112 113 114 115 116 117 118 119
24 120 121 122 123 124 125 126 127 128 129 130 131 132 133 134 135 136 137 138 139 140 141 142 143
CELL_TYPES  6 
33
33
33
33
33
33
CELL_DATA  6 
SCALARS average_vol_activity_bq_m3 double 1 
LOOKUP_TABLE default
1.50305
2.61708
119.94299
31.57271
5.75699
2.69464
SCALARS total_activity_bq double 1 
LOOKUP_TABLE default
0.00047
0.00740
0.94203
0.74391
0.04522
0.02116
SCALARS mc_error double 1 
LOOKUP_TABLE default
0.00000
0.00000
0.00190
0.00190
0.00190
0.00190
