# vtk DataFile Version 2.0
DGS printing
ASCII
DATASET UNSTRUCTURED_GRID
POINTS  144  floats
21.26050 20.90860 20.10210 21.24640 20.90860 20.10100 21.24750 20.90860 20.08690 
21.26160 20.90860 20.08800 21.26050 19.90860 20.10210 21.24640 19.90860 20.10100 
21.24750 19.90860 20.08690 21.26160 19.90860 20.08800 21.25323 20.90860 20.10447 
21.24403 20.90860 20.09373 21.25477 20.90860 20.08453 21.26397 20.90860 20.09527 
21.25323 19.90860 20.10447 21.24403 19.90860 20.09373 21.25477 19.90860 20.08453 
21.26397 19.90860 20.09527 21.26050 20.40860 20.10210 21.24640 20.40860 20.10100 
21.24750 20.40860 20.08690 21.26160 20.40860 20.08800 21.26397 20.40860 20.09527 
21.24403 20.40860 20.09373 21.25323 20.40860 20.10447 21.25477 20.40860 20.08453 
21.27983 21.90860 20.10975 21.23875 21.90860 20.12033 21.22817 21.90860 20.07925 
21.26925 21.90860 20.06867 21.27983 20.90860 20.10975 21.23875 20.90860 20.12033 
21.22817 20.90860 20.07925 21.26925 20.90860 20.06867 21.26148 21.90860 20.12355 
21.22495 21.90860 20.10198 21.24652 21.90860 20.06545 21.28305 21.90860 20.08702 
21.26148 20.90860 20.12355 21.22495 20.90860 20.10198 21.24652 20.90860 20.06545 
21.28305 20.90860 20.08702 21.27983 21.40860 20.10975 21.23875 21.40860 20.12033 
21.22817 21.40860 20.07925 21.26925 21.40860 20.06867 21.28305 21.40860 20.08702 
21.22495 21.40860 20.10198 21.26148 21.40860 20.12355 21.24652 21.40860 20.06545 
21.28880 22.90860 20.13041 21.28991 22.90860 20.05970 21.21920 22.90860 20.05859 
21.21809 22.90860 20.12930 21.28880 23.90860 20.13041 21.28991 23.90860 20.05970 
21.21920 23.90860 20.05859 21.21809 23.90860 20.12930 21.30399 22.90860 20.09529 
21.25479 22.90860 20.04451 21.20401 22.90860 20.09371 21.25321 22.90860 20.14449 
21.30399 23.90860 20.09529 21.25479 23.90860 20.04451 21.20401 23.90860 20.09371 
21.25321 23.90860 20.14449 21.28880 23.40860 20.13041 21.28991 23.40860 20.05970 
21.21920 23.40860 20.05859 21.21809 23.40860 20.12930 21.25321 23.40860 20.14449 
21.25479 23.40860 20.04451 21.30399 23.40860 20.09529 21.20401 23.40860 20.09371 
21.28316 23.90860 20.13512 21.29462 23.90860 20.06534 21.22484 23.90860 20.05388 
21.21338 23.90860 20.12366 21.28316 26.90860 20.13512 21.29462 26.90860 20.06534 
21.22484 26.90860 20.05388 21.21338 26.90860 20.12366 21.30334 23.90860 20.10260 
21.26210 23.90860 20.04516 21.20466 23.90860 20.08640 21.24590 23.90860 20.14384 
21.30334 26.90860 20.10260 21.26210 26.90860 20.04516 21.20466 26.90860 20.08640 
21.24590 26.90860 20.14384 21.28316 25.40860 20.13512 21.29462 25.40860 20.06534 
21.22484 25.40860 20.05388 21.21338 25.40860 20.12366 21.24590 25.40860 20.14384 
21.26210 25.40860 20.04516 21.30334 25.40860 20.10260 21.20466 25.40860 20.08640 
21.26840 27.22820 20.14238 21.30188 27.22820 20.08010 21.23960 27.22820 20.04662 
21.20612 27.22820 20.10890 21.26840 28.22820 20.14238 21.30188 28.22820 20.08010 
21.23960 28.22820 20.04662 21.20612 28.22820 20.10890 21.29804 27.22820 20.11817 
21.27767 27.22820 20.05046 21.20996 27.22820 20.07083 21.23033 27.22820 20.13854 
21.29804 28.22820 20.11817 21.27767 28.22820 20.05046 21.20996 28.22820 20.07083 
21.23033 28.22820 20.13854 21.26840 27.72820 20.14238 21.30188 27.72820 20.08010 
21.23960 27.72820 20.04662 21.20612 27.72820 20.10890 21.23033 27.72820 20.13854 
21.27767 27.72820 20.05046 21.29804 27.72820 20.11817 21.20996 27.72820 20.07083 
21.30004 28.53440 20.11400 21.27350 28.53440 20.04846 21.20796 28.53440 20.07500 
21.23450 28.53440 20.14054 21.30004 29.53440 20.11400 21.27350 29.53440 20.04846 
21.20796 29.53440 20.07500 21.23450 29.53440 20.14054 21.30035 28.53440 20.07574 
21.23524 28.53440 20.04815 21.20765 28.53440 20.11326 21.27276 28.53440 20.14085 
21.30035 29.53440 20.07574 21.23524 29.53440 20.04815 21.20765 29.53440 20.11326 
21.27276 29.53440 20.14085 21.30004 29.03440 20.11400 21.27350 29.03440 20.04846 
21.20796 29.03440 20.07500 21.23450 29.03440 20.14054 21.27276 29.03440 20.14085 
21.23524 29.03440 20.04815 21.30035 29.03440 20.07574 21.20765 29.03440 20.11326 
CELLS  6   150
24 0 1 2 3 4 5 6 7 8 9 10 11 12 13 14 15 16 17 18 19 20 21 22 23
24 24 25 26 27 28 29 30 31 32 33 34 35 36 37 38 39 40 41 42 43 44 45 46 47
24 48 49 50 51 52 53 54 55 56 57 58 59 60 61 62 63 64 65 66 67 68 69 70 71
24 72 73 74 75 76 77 78 79 80 81 82 83 84 85 86 87 88 89 90 91 92 93 94 95
24 96 97 98 99 100 101 102 103 104 105 106 107 108 109 110 111 112 113 114 115 116 117 118 119
24 120 121 122 123 124 125 126 127 128 129 130 131 132 133 134 135 136 137 138 139 140 141 142 143
CELL_TYPES  6 
33
33
33
33
33
33
CELL_DATA  6 
SCALARS node_id int 1 
LOOKUP_TABLE default
1
2
4
5
6
7
SCALARS average_vol_activity_bq_m3 double 1 
LOOKUP_TABLE default
1.50305e+00
2.61708e+00
1.20430e+02
3.17010e+01
5.78039e+00
2.70559e+00
SCALARS total_activity_bq double 1 
LOOKUP_TABLE default
4.72196e-04
7.39960e-03
9.45858e-01
7.46936e-01
4.53991e-02
2.12496e-02
SCALARS mc_error double 1 
LOOKUP_TABLE default
0.00000
0.00000
0.00190
0.00190
0.00190
0.00190
