# vtk DataFile Version 2.0
DGS printing
ASCII
DATASET UNSTRUCTURED_GRID
POINTS  48  floats
21.25916 21.82162 19.37600 21.21538 21.78816 19.37600 21.24884 21.74438 19.37600 
21.29262 21.77784 19.37600 21.25916 21.82162 20.81797 21.21538 21.78816 20.81797 
21.24884 21.74438 20.81797 21.29262 21.77784 20.81797 21.23034 21.81396 19.37600 
21.22304 21.75934 19.37600 21.27766 21.75204 19.37600 21.28496 21.80666 19.37600 
21.23034 21.81396 20.81797 21.22304 21.75934 20.81797 21.27766 21.75204 20.81797 
21.28496 21.80666 20.81797 21.25916 21.82162 20.09698 21.21538 21.78816 20.09698 
21.24884 21.74438 20.09698 21.29262 21.77784 20.09698 21.28496 21.80666 20.09698 
21.22304 21.75934 20.09698 21.23034 21.81396 20.09698 21.27766 21.75204 20.09698 
21.28044 22.81161 19.37600 21.22539 22.80944 19.37600 21.22756 22.75439 19.37600 
21.28261 22.75656 19.37600 21.28044 22.81161 20.81797 21.22539 22.80944 20.81797 
21.22756 22.75439 20.81797 21.28261 22.75656 20.81797 21.25247 22.82193 19.37600 
21.21507 22.78147 19.37600 21.25553 22.74407 19.37600 21.29293 22.78453 19.37600 
21.25247 22.82193 20.81797 21.21507 22.78147 20.81797 21.25553 22.74407 20.81797 
21.29293 22.78453 20.81797 21.28044 22.81161 20.09698 21.22539 22.80944 20.09698 
21.22756 22.75439 20.09698 21.28261 22.75656 20.09698 21.29293 22.78453 20.09698 
21.21507 22.78147 20.09698 21.25247 22.82193 20.09698 21.25553 22.74407 20.09698 
CELLS  2   50
24 0 1 2 3 4 5 6 7 8 9 10 11 12 13 14 15 16 17 18 19 20 21 22 23
24 24 25 26 27 28 29 30 31 32 33 34 35 36 37 38 39 40 41 42 43 44 45 46 47
CELL_TYPES  2 
33
33
CELL_DATA  2 
SCALARS node_id int 1 
LOOKUP_TABLE default
1
2
SCALARS average_vol_activity_bq_m3 double 1 
LOOKUP_TABLE default
7.15339e+01
8.28829e+01
SCALARS total_activity_bq double 1 
LOOKUP_TABLE default
4.91876e-01
5.69913e-01
SCALARS mc_error double 1 
LOOKUP_TABLE default
0.00000
0.00000
