# vtk DataFile Version 2.0
DGS printing
ASCII
DATASET UNSTRUCTURED_GRID
POINTS  48  floats
21.28550 21.80593 19.37600 21.23107 21.81450 19.37600 21.22250 21.76007 19.37600 
21.27693 21.75150 19.37600 21.28550 21.80593 20.81797 21.23107 21.81450 20.81797 
21.22250 21.76007 20.81797 21.27693 21.75150 20.81797 21.26006 21.82149 19.37600 
21.21551 21.78906 19.37600 21.24794 21.74451 19.37600 21.29249 21.77694 19.37600 
21.26006 21.82149 20.81797 21.21551 21.78906 20.81797 21.24794 21.74451 20.81797 
21.29249 21.77694 20.81797 21.28550 21.80593 20.09698 21.23107 21.81450 20.09698 
21.22250 21.76007 20.09698 21.27693 21.75150 20.09698 21.29249 21.77694 20.09698 
21.21551 21.78906 20.09698 21.26006 21.82149 20.09698 21.24794 21.74451 20.09698 
21.26660 22.81986 19.37600 21.21714 22.79560 19.37600 21.24140 22.74614 19.37600 
21.29086 22.77040 19.37600 21.26660 22.81986 20.81797 21.21714 22.79560 20.81797 
21.24140 22.74614 20.81797 21.29086 22.77040 20.81797 21.23685 22.81798 19.37600 
21.21902 22.76585 19.37600 21.27115 22.74802 19.37600 21.28898 22.80015 19.37600 
21.23685 22.81798 20.81797 21.21902 22.76585 20.81797 21.27115 22.74802 20.81797 
21.28898 22.80015 20.81797 21.26660 22.81986 20.09698 21.21714 22.79560 20.09698 
21.24140 22.74614 20.09698 21.29086 22.77040 20.09698 21.28898 22.80015 20.09698 
21.21902 22.76585 20.09698 21.23685 22.81798 20.09698 21.27115 22.74802 20.09698 
CELLS  2   50
24 0 1 2 3 4 5 6 7 8 9 10 11 12 13 14 15 16 17 18 19 20 21 22 23
24 24 25 26 27 28 29 30 31 32 33 34 35 36 37 38 39 40 41 42 43 44 45 46 47
CELL_TYPES  2 
33
33
CELL_DATA  2 
SCALARS node_id int 1 
LOOKUP_TABLE default
1
2
SCALARS average_vol_activity_bq_m3 double 1 
LOOKUP_TABLE default
9.55369e+00
1.91074e+01
SCALARS total_activity_bq double 1 
LOOKUP_TABLE default
6.56924e-02
1.31385e-01
SCALARS mc_error double 1 
LOOKUP_TABLE default
0.00000
0.00000
