# vtk DataFile Version 2.0
DGS printing
ASCII
DATASET UNSTRUCTURED_GRID
POINTS  48  floats
21.26837 21.81921 19.37600 21.21779 21.79737 19.37600 21.23963 21.74679 19.37600 
21.29021 21.76863 19.37600 21.26837 21.81921 20.81797 21.21779 21.79737 20.81797 
21.23963 21.74679 20.81797 21.29021 21.76863 20.81797 21.23855 21.81877 19.37600 
21.21823 21.76755 19.37600 21.26945 21.74723 19.37600 21.28977 21.79845 19.37600 
21.23855 21.81877 20.81797 21.21823 21.76755 20.81797 21.26945 21.74723 20.81797 
21.28977 21.79845 20.81797 21.26837 21.81921 20.09698 21.21779 21.79737 20.09698 
21.23963 21.74679 20.09698 21.29021 21.76863 20.09698 21.28977 21.79845 20.09698 
21.21823 21.76755 20.09698 21.23855 21.81877 20.09698 21.26945 21.74723 20.09698 
21.29283 22.78612 19.37600 21.25088 22.82183 19.37600 21.21517 22.77988 19.37600 
21.25712 22.74417 19.37600 21.29283 22.78612 20.81797 21.25088 22.82183 20.81797 
21.21517 22.77988 20.81797 21.25712 22.74417 20.81797 21.27925 22.81267 19.37600 
21.22433 22.80825 19.37600 21.22875 22.75333 19.37600 21.28367 22.75775 19.37600 
21.27925 22.81267 20.81797 21.22433 22.80825 20.81797 21.22875 22.75333 20.81797 
21.28367 22.75775 20.81797 21.29283 22.78612 20.09698 21.25088 22.82183 20.09698 
21.21517 22.77988 20.09698 21.25712 22.74417 20.09698 21.28367 22.75775 20.09698 
21.22433 22.80825 20.09698 21.27925 22.81267 20.09698 21.22875 22.75333 20.09698 
CELLS  2   50
24 0 1 2 3 4 5 6 7 8 9 10 11 12 13 14 15 16 17 18 19 20 21 22 23
24 24 25 26 27 28 29 30 31 32 33 34 35 36 37 38 39 40 41 42 43 44 45 46 47
CELL_TYPES  2 
33
33
CELL_DATA  2 
SCALARS average_vol_activity_bq_m3 double 1 
LOOKUP_TABLE default
0.00000
0.00000
SCALARS total_activity_bq double 1 
LOOKUP_TABLE default
0.00000
0.00000
SCALARS mc_error double 1 
LOOKUP_TABLE default
0.00000
0.00000
