# vtk DataFile Version 2.0
DGS printing
ASCII
DATASET UNSTRUCTURED_GRID
POINTS  48  floats
21.27939 21.81255 19.37600 21.22445 21.80839 19.37600 21.22861 21.75345 19.37600 
21.28355 21.75761 19.37600 21.27939 21.81255 20.81797 21.22445 21.80839 20.81797 
21.22861 21.75345 20.81797 21.28355 21.75761 20.81797 21.25106 21.82185 19.37600 
21.21515 21.78006 19.37600 21.25694 21.74415 19.37600 21.29285 21.78594 19.37600 
21.25106 21.82185 20.81797 21.21515 21.78006 20.81797 21.25694 21.74415 20.81797 
21.29285 21.78594 20.81797 21.27939 21.81255 20.09698 21.22445 21.80839 20.09698 
21.22861 21.75345 20.09698 21.28355 21.75761 20.09698 21.29285 21.78594 20.09698 
21.21515 21.78006 20.09698 21.25106 21.82185 20.09698 21.25694 21.74415 20.09698 
21.27116 22.81798 19.37600 21.21902 22.80016 19.37600 21.23684 22.74802 19.37600 
21.28898 22.76584 19.37600 21.27116 22.81798 20.81797 21.21902 22.80016 20.81797 
21.23684 22.74802 20.81797 21.28898 22.76584 20.81797 21.24140 22.81987 19.37600 
21.21713 22.77040 19.37600 21.26660 22.74613 19.37600 21.29087 22.79560 19.37600 
21.24140 22.81987 20.81797 21.21713 22.77040 20.81797 21.26660 22.74613 20.81797 
21.29087 22.79560 20.81797 21.27116 22.81798 20.09698 21.21902 22.80016 20.09698 
21.23684 22.74802 20.09698 21.28898 22.76584 20.09698 21.29087 22.79560 20.09698 
21.21713 22.77040 20.09698 21.24140 22.81987 20.09698 21.26660 22.74613 20.09698 
CELLS  2   50
24 0 1 2 3 4 5 6 7 8 9 10 11 12 13 14 15 16 17 18 19 20 21 22 23
24 24 25 26 27 28 29 30 31 32 33 34 35 36 37 38 39 40 41 42 43 44 45 46 47
CELL_TYPES  2 
33
33
CELL_DATA  2 
SCALARS node_id int 1 
LOOKUP_TABLE default
1
2
SCALARS average_vol_activity_bq_m3 double 1 
LOOKUP_TABLE default
7.15339e+01
8.28829e+01
SCALARS total_activity_bq double 1 
LOOKUP_TABLE default
4.91876e-01
5.69913e-01
SCALARS mc_error double 1 
LOOKUP_TABLE default
0.00000
0.00000
