# vtk DataFile Version 2.0
DGS printing
ASCII
DATASET UNSTRUCTURED_GRID
POINTS  48  floats
21.29091 21.79547 19.37600 21.24153 21.81991 19.37600 21.21709 21.77053 19.37600 
21.26647 21.74609 19.37600 21.29091 21.79547 20.81797 21.24153 21.81991 20.81797 
21.21709 21.77053 20.81797 21.26647 21.74609 20.81797 21.27128 21.81792 19.37600 
21.21908 21.80028 19.37600 21.23672 21.74808 19.37600 21.28892 21.76572 19.37600 
21.27128 21.81792 20.81797 21.21908 21.80028 20.81797 21.23672 21.74808 20.81797 
21.28892 21.76572 20.81797 21.29091 21.79547 20.09698 21.24153 21.81991 20.09698 
21.21709 21.77053 20.09698 21.26647 21.74609 20.09698 21.28892 21.76572 20.09698 
21.21908 21.80028 20.09698 21.27128 21.81792 20.09698 21.23672 21.74808 20.09698 
21.29210 22.79113 19.37600 21.24587 22.82110 19.37600 21.21590 22.77487 19.37600 
21.26213 22.74490 19.37600 21.29210 22.79113 20.81797 21.24587 22.82110 20.81797 
21.21590 22.77487 20.81797 21.26213 22.74490 20.81797 21.27519 22.81569 19.37600 
21.22131 22.80419 19.37600 21.23281 22.75031 19.37600 21.28669 22.76181 19.37600 
21.27519 22.81569 20.81797 21.22131 22.80419 20.81797 21.23281 22.75031 20.81797 
21.28669 22.76181 20.81797 21.29210 22.79113 20.09698 21.24587 22.82110 20.09698 
21.21590 22.77487 20.09698 21.26213 22.74490 20.09698 21.28669 22.76181 20.09698 
21.22131 22.80419 20.09698 21.27519 22.81569 20.09698 21.23281 22.75031 20.09698 
CELLS  2   50
24 0 1 2 3 4 5 6 7 8 9 10 11 12 13 14 15 16 17 18 19 20 21 22 23
24 24 25 26 27 28 29 30 31 32 33 34 35 36 37 38 39 40 41 42 43 44 45 46 47
CELL_TYPES  2 
33
33
CELL_DATA  2 
SCALARS node_id int 1 
LOOKUP_TABLE default
1
2
SCALARS average_vol_activity_bq_m3 double 1 
LOOKUP_TABLE default
0.00000e+00
0.00000e+00
SCALARS total_activity_bq double 1 
LOOKUP_TABLE default
0.00000e+00
0.00000e+00
SCALARS mc_error double 1 
LOOKUP_TABLE default
0.00000
0.00000
