# vtk DataFile Version 2.0
DGS printing
ASCII
DATASET UNSTRUCTURED_GRID
POINTS  48  floats
21.27152 21.81780 19.37600 21.21920 21.80052 19.37600 21.23648 21.74820 19.37600 
21.28880 21.76548 19.37600 21.27152 21.81780 20.81797 21.21920 21.80052 20.81797 
21.23648 21.74820 20.81797 21.28880 21.76548 20.81797 21.24178 21.81999 19.37600 
21.21701 21.77078 19.37600 21.26622 21.74601 19.37600 21.29099 21.79522 19.37600 
21.24178 21.81999 20.81797 21.21701 21.77078 20.81797 21.26622 21.74601 20.81797 
21.29099 21.79522 20.81797 21.27152 21.81780 20.09698 21.21920 21.80052 20.09698 
21.23648 21.74820 20.09698 21.28880 21.76548 20.09698 21.29099 21.79522 20.09698 
21.21701 21.77078 20.09698 21.24178 21.81999 20.09698 21.26622 21.74601 20.09698 
21.26445 22.82053 19.37600 21.21647 22.79345 19.37600 21.24355 22.74547 19.37600 
21.29153 22.77255 19.37600 21.26445 22.82053 20.81797 21.21647 22.79345 20.81797 
21.24355 22.74547 20.81797 21.29153 22.77255 20.81797 21.23485 22.81693 19.37600 
21.22007 22.76385 19.37600 21.27315 22.74907 19.37600 21.28793 22.80215 19.37600 
21.23485 22.81693 20.81797 21.22007 22.76385 20.81797 21.27315 22.74907 20.81797 
21.28793 22.80215 20.81797 21.26445 22.82053 20.09698 21.21647 22.79345 20.09698 
21.24355 22.74547 20.09698 21.29153 22.77255 20.09698 21.28793 22.80215 20.09698 
21.22007 22.76385 20.09698 21.23485 22.81693 20.09698 21.27315 22.74907 20.09698 
CELLS  2   50
24 0 1 2 3 4 5 6 7 8 9 10 11 12 13 14 15 16 17 18 19 20 21 22 23
24 24 25 26 27 28 29 30 31 32 33 34 35 36 37 38 39 40 41 42 43 44 45 46 47
CELL_TYPES  2 
33
33
CELL_DATA  2 
SCALARS average_vol_activity_bq_m3 double 1 
LOOKUP_TABLE default
9.55369
19.10739
SCALARS total_activity_bq double 1 
LOOKUP_TABLE default
0.06569
0.13138
SCALARS mc_error double 1 
LOOKUP_TABLE default
0.00000
0.00000
