# vtk DataFile Version 2.0
DGS printing
ASCII
DATASET UNSTRUCTURED_GRID
POINTS  48  floats
21.27611 21.81508 19.37600 21.22192 21.80511 19.37600 21.23189 21.75092 19.37600 
21.28608 21.76089 19.37600 21.27611 21.81508 20.81797 21.22192 21.80511 20.81797 
21.23189 21.75092 20.81797 21.28608 21.76089 20.81797 21.24695 21.82132 19.37600 
21.21568 21.77595 19.37600 21.26105 21.74468 19.37600 21.29232 21.79005 19.37600 
21.24695 21.82132 20.81797 21.21568 21.77595 20.81797 21.26105 21.74468 20.81797 
21.29232 21.79005 20.81797 21.27611 21.81508 20.09698 21.22192 21.80511 20.09698 
21.23189 21.75092 20.09698 21.28608 21.76089 20.09698 21.29232 21.79005 20.09698 
21.21568 21.77595 20.09698 21.24695 21.82132 20.09698 21.26105 21.74468 20.09698 
21.27854 22.81326 19.37600 21.22374 22.80754 19.37600 21.22946 22.75274 19.37600 
21.28426 22.75846 19.37600 21.27854 22.81326 20.81797 21.22374 22.80754 20.81797 
21.22946 22.75274 20.81797 21.28426 22.75846 20.81797 21.24996 22.82175 19.37600 
21.21525 22.77896 19.37600 21.25804 22.74425 19.37600 21.29275 22.78704 19.37600 
21.24996 22.82175 20.81797 21.21525 22.77896 20.81797 21.25804 22.74425 20.81797 
21.29275 22.78704 20.81797 21.27854 22.81326 20.09698 21.22374 22.80754 20.09698 
21.22946 22.75274 20.09698 21.28426 22.75846 20.09698 21.29275 22.78704 20.09698 
21.21525 22.77896 20.09698 21.24996 22.82175 20.09698 21.25804 22.74425 20.09698 
CELLS  2   50
24 0 1 2 3 4 5 6 7 8 9 10 11 12 13 14 15 16 17 18 19 20 21 22 23
24 24 25 26 27 28 29 30 31 32 33 34 35 36 37 38 39 40 41 42 43 44 45 46 47
CELL_TYPES  2 
33
33
CELL_DATA  2 
SCALARS average_vol_activity_bq_m3 double 1 
LOOKUP_TABLE default
0.00000
0.00000
SCALARS total_activity_bq double 1 
LOOKUP_TABLE default
0.00000
0.00000
SCALARS mc_error double 1 
LOOKUP_TABLE default
0.00000
0.00000
