# vtk DataFile Version 2.0
DGS printing
ASCII
DATASET UNSTRUCTURED_GRID
POINTS  48  floats
21.28245 21.80962 19.37600 21.22738 21.81145 19.37600 21.22555 21.75638 19.37600 
21.28062 21.75455 19.37600 21.28245 21.80962 20.81797 21.22738 21.81145 20.81797 
21.22555 21.75638 20.81797 21.28062 21.75455 20.81797 21.25529 21.82194 19.37600 
21.21506 21.78429 19.37600 21.25271 21.74406 19.37600 21.29294 21.78171 19.37600 
21.25529 21.82194 20.81797 21.21506 21.78429 20.81797 21.25271 21.74406 20.81797 
21.29294 21.78171 20.81797 21.28245 21.80962 20.09698 21.22738 21.81145 20.09698 
21.22555 21.75638 20.09698 21.28062 21.75455 20.09698 21.29294 21.78171 20.09698 
21.21506 21.78429 20.09698 21.25529 21.82194 20.09698 21.25271 21.74406 20.09698 
21.29294 22.78417 19.37600 21.25283 22.82194 19.37600 21.21506 22.78183 19.37600 
21.25517 22.74406 19.37600 21.29294 22.78417 20.81797 21.25283 22.82194 20.81797 
21.21506 22.78183 20.81797 21.25517 22.74406 20.81797 21.28071 22.81137 19.37600 
21.22563 22.80971 19.37600 21.22729 22.75463 19.37600 21.28237 22.75629 19.37600 
21.28071 22.81137 20.81797 21.22563 22.80971 20.81797 21.22729 22.75463 20.81797 
21.28237 22.75629 20.81797 21.29294 22.78417 20.09698 21.25283 22.82194 20.09698 
21.21506 22.78183 20.09698 21.25517 22.74406 20.09698 21.28237 22.75629 20.09698 
21.22563 22.80971 20.09698 21.28071 22.81137 20.09698 21.22729 22.75463 20.09698 
CELLS  2   50
24 0 1 2 3 4 5 6 7 8 9 10 11 12 13 14 15 16 17 18 19 20 21 22 23
24 24 25 26 27 28 29 30 31 32 33 34 35 36 37 38 39 40 41 42 43 44 45 46 47
CELL_TYPES  2 
33
33
CELL_DATA  2 
SCALARS average_vol_activity_bq_m3 double 1 
LOOKUP_TABLE default
71.53386
82.88287
SCALARS total_activity_bq double 1 
LOOKUP_TABLE default
0.49188
0.56991
SCALARS mc_error double 1 
LOOKUP_TABLE default
0.00000
0.00000
