# vtk DataFile Version 2.0
DGS printing
ASCII
DATASET UNSTRUCTURED_GRID
POINTS  48  floats
21.28306 21.80895 19.37600 21.22805 21.81206 19.37600 21.22494 21.75705 19.37600 
21.27995 21.75394 19.37600 21.28306 21.80895 20.81797 21.22805 21.81206 20.81797 
21.22494 21.75705 20.81797 21.27995 21.75394 20.81797 21.25620 21.82190 19.37600 
21.21510 21.78520 19.37600 21.25180 21.74410 19.37600 21.29290 21.78080 19.37600 
21.25620 21.82190 20.81797 21.21510 21.78520 20.81797 21.25180 21.74410 20.81797 
21.29290 21.78080 20.81797 21.28306 21.80895 20.09698 21.22805 21.81206 20.09698 
21.22494 21.75705 20.09698 21.27995 21.75394 20.09698 21.29290 21.78080 20.09698 
21.21510 21.78520 20.09698 21.25620 21.82190 20.09698 21.25180 21.74410 20.09698 
21.27367 22.81663 19.37600 21.22037 22.80267 19.37600 21.23433 22.74937 19.37600 
21.28763 22.76333 19.37600 21.27367 22.81663 20.81797 21.22037 22.80267 20.81797 
21.23433 22.74937 20.81797 21.28763 22.76333 20.81797 21.24413 22.82069 19.37600 
21.21631 22.77313 19.37600 21.26387 22.74531 19.37600 21.29169 22.79287 19.37600 
21.24413 22.82069 20.81797 21.21631 22.77313 20.81797 21.26387 22.74531 20.81797 
21.29169 22.79287 20.81797 21.27367 22.81663 20.09698 21.22037 22.80267 20.09698 
21.23433 22.74937 20.09698 21.28763 22.76333 20.09698 21.29169 22.79287 20.09698 
21.21631 22.77313 20.09698 21.24413 22.82069 20.09698 21.26387 22.74531 20.09698 
CELLS  2   50
24 0 1 2 3 4 5 6 7 8 9 10 11 12 13 14 15 16 17 18 19 20 21 22 23
24 24 25 26 27 28 29 30 31 32 33 34 35 36 37 38 39 40 41 42 43 44 45 46 47
CELL_TYPES  2 
33
33
CELL_DATA  2 
SCALARS node_id int 1 
LOOKUP_TABLE default
1
2
SCALARS average_vol_activity_bq_m3 double 1 
LOOKUP_TABLE default
9.55369e+00
1.91074e+01
SCALARS total_activity_bq double 1 
LOOKUP_TABLE default
6.56924e-02
1.31385e-01
SCALARS mc_error double 1 
LOOKUP_TABLE default
0.00000
0.00000
