# vtk DataFile Version 2.0
DGS printing
ASCII
DATASET UNSTRUCTURED_GRID
POINTS  48  floats
21.28092 21.81116 19.37600 21.22584 21.80992 19.37600 21.22708 21.75484 19.37600 
21.28216 21.75608 19.37600 21.28092 21.81116 20.81797 21.22584 21.80992 20.81797 
21.22708 21.75484 20.81797 21.28216 21.75608 20.81797 21.25312 21.82195 19.37600 
21.21505 21.78212 19.37600 21.25488 21.74405 19.37600 21.29295 21.78388 19.37600 
21.25312 21.82195 20.81797 21.21505 21.78212 20.81797 21.25488 21.74405 20.81797 
21.29295 21.78388 20.81797 21.28092 21.81116 20.09698 21.22584 21.80992 20.09698 
21.22708 21.75484 20.09698 21.28216 21.75608 20.09698 21.29295 21.78388 20.09698 
21.21505 21.78212 20.09698 21.25312 21.82195 20.09698 21.25488 21.74405 20.09698 
21.25538 22.82194 19.37600 21.21506 22.78438 19.37600 21.25262 22.74406 19.37600 
21.29294 22.78162 19.37600 21.25538 22.82194 20.81797 21.21506 22.78438 20.81797 
21.25262 22.74406 20.81797 21.29294 22.78162 20.81797 21.22744 22.81151 19.37600 
21.22549 22.75644 19.37600 21.28056 22.75449 19.37600 21.28251 22.80956 19.37600 
21.22744 22.81151 20.81797 21.22549 22.75644 20.81797 21.28056 22.75449 20.81797 
21.28251 22.80956 20.81797 21.25538 22.82194 20.09698 21.21506 22.78438 20.09698 
21.25262 22.74406 20.09698 21.29294 22.78162 20.09698 21.28251 22.80956 20.09698 
21.22549 22.75644 20.09698 21.22744 22.81151 20.09698 21.28056 22.75449 20.09698 
CELLS  2   50
24 0 1 2 3 4 5 6 7 8 9 10 11 12 13 14 15 16 17 18 19 20 21 22 23
24 24 25 26 27 28 29 30 31 32 33 34 35 36 37 38 39 40 41 42 43 44 45 46 47
CELL_TYPES  2 
33
33
CELL_DATA  2 
SCALARS node_id int 1 
LOOKUP_TABLE default
1
2
SCALARS average_vol_activity_bq_m3 double 1 
LOOKUP_TABLE default
7.15339e+01
8.28829e+01
SCALARS total_activity_bq double 1 
LOOKUP_TABLE default
4.91876e-01
5.69913e-01
SCALARS mc_error double 1 
LOOKUP_TABLE default
0.00000
0.00000
