# vtk DataFile Version 2.0
DGS printing
ASCII
DATASET UNSTRUCTURED_GRID
POINTS  48  floats
21.29296 21.78310 19.37600 21.25390 21.82196 19.37600 21.21504 21.78290 19.37600 
21.25410 21.74404 19.37600 21.29296 21.78310 20.81797 21.25390 21.82196 20.81797 
21.21504 21.78290 20.81797 21.25410 21.74404 20.81797 21.28148 21.81062 19.37600 
21.22638 21.81048 19.37600 21.22652 21.75538 19.37600 21.28162 21.75552 19.37600 
21.28148 21.81062 20.81797 21.22638 21.81048 20.81797 21.22652 21.75538 20.81797 
21.28162 21.75552 20.81797 21.29296 21.78310 20.09698 21.25390 21.82196 20.09698 
21.21504 21.78290 20.09698 21.25410 21.74404 20.09698 21.28162 21.75552 20.09698 
21.22638 21.81048 20.09698 21.28148 21.81062 20.09698 21.22652 21.75538 20.09698 
21.27700 22.81444 19.37600 21.22256 22.80600 19.37600 21.23100 22.75156 19.37600 
21.28544 22.76000 19.37600 21.27700 22.81444 20.81797 21.22256 22.80600 20.81797 
21.23100 22.75156 20.81797 21.28544 22.76000 20.81797 21.24803 22.82150 19.37600 
21.21550 22.77703 19.37600 21.25997 22.74450 19.37600 21.29250 22.78897 19.37600 
21.24803 22.82150 20.81797 21.21550 22.77703 20.81797 21.25997 22.74450 20.81797 
21.29250 22.78897 20.81797 21.27700 22.81444 20.09698 21.22256 22.80600 20.09698 
21.23100 22.75156 20.09698 21.28544 22.76000 20.09698 21.29250 22.78897 20.09698 
21.21550 22.77703 20.09698 21.24803 22.82150 20.09698 21.25997 22.74450 20.09698 
CELLS  2   50
24 0 1 2 3 4 5 6 7 8 9 10 11 12 13 14 15 16 17 18 19 20 21 22 23
24 24 25 26 27 28 29 30 31 32 33 34 35 36 37 38 39 40 41 42 43 44 45 46 47
CELL_TYPES  2 
33
33
CELL_DATA  2 
SCALARS average_vol_activity_bq_m3 double 1 
LOOKUP_TABLE default
9.55369
19.10739
SCALARS total_activity_bq double 1 
LOOKUP_TABLE default
0.06569
0.13138
SCALARS mc_error double 1 
LOOKUP_TABLE default
0.00000
0.00000
