# vtk DataFile Version 2.0
DGS printing
ASCII
DATASET UNSTRUCTURED_GRID
POINTS  48  floats
21.27931 21.81262 19.37600 21.22438 21.80831 19.37600 21.22869 21.75338 19.37600 
21.28362 21.75769 19.37600 21.27931 21.81262 20.81797 21.22438 21.80831 20.81797 
21.22869 21.75338 20.81797 21.28362 21.75769 20.81797 21.25095 21.82184 19.37600 
21.21516 21.77995 19.37600 21.25705 21.74416 19.37600 21.29284 21.78605 19.37600 
21.25095 21.82184 20.81797 21.21516 21.77995 20.81797 21.25705 21.74416 20.81797 
21.29284 21.78605 20.81797 21.27931 21.81262 20.09698 21.22438 21.80831 20.09698 
21.22869 21.75338 20.09698 21.28362 21.75769 20.09698 21.29284 21.78605 20.09698 
21.21516 21.77995 20.09698 21.25095 21.82184 20.09698 21.25705 21.74416 20.09698 
21.29281 22.78642 19.37600 21.25058 22.82181 19.37600 21.21519 22.77958 19.37600 
21.25742 22.74419 19.37600 21.29281 22.78642 20.81797 21.25058 22.82181 20.81797 
21.21519 22.77958 20.81797 21.25742 22.74419 20.81797 21.27903 22.81286 19.37600 
21.22414 22.80803 19.37600 21.22897 22.75314 19.37600 21.28386 22.75797 19.37600 
21.27903 22.81286 20.81797 21.22414 22.80803 20.81797 21.22897 22.75314 20.81797 
21.28386 22.75797 20.81797 21.29281 22.78642 20.09698 21.25058 22.82181 20.09698 
21.21519 22.77958 20.09698 21.25742 22.74419 20.09698 21.28386 22.75797 20.09698 
21.22414 22.80803 20.09698 21.27903 22.81286 20.09698 21.22897 22.75314 20.09698 
CELLS  2   50
24 0 1 2 3 4 5 6 7 8 9 10 11 12 13 14 15 16 17 18 19 20 21 22 23
24 24 25 26 27 28 29 30 31 32 33 34 35 36 37 38 39 40 41 42 43 44 45 46 47
CELL_TYPES  2 
33
33
CELL_DATA  2 
SCALARS node_id int 1 
LOOKUP_TABLE default
1
2
SCALARS average_vol_activity_bq_m3 double 1 
LOOKUP_TABLE default
0.00000e+00
0.00000e+00
SCALARS total_activity_bq double 1 
LOOKUP_TABLE default
0.00000e+00
0.00000e+00
SCALARS mc_error double 1 
LOOKUP_TABLE default
0.00000
0.00000
