# Region type : patch face1
# Faces  :    138
# Area   :    9.242436e-05
# Time        	sum(Tr)
0             	0.000000e+00
29            	0.000000e+00
