/*--------------------------------*- C++ -*----------------------------------*\
  =========                 |
  \\      /  F ield         | OpenFOAM: The Open Source CFD Toolbox
   \\    /   O peration     | Website:  https://openfoam.org
    \\  /    A nd           | Version:  10
     \\/     M anipulation  |
\*---------------------------------------------------------------------------*/
FoamFile
{
    format      ascii;
    class       surfaceScalarField;
    location    "43";
    object      phi;
}
// * * * * * * * * * * * * * * * * * * * * * * * * * * * * * * * * * * * * * //

dimensions      [0 3 -1 0 0 0 0];

internalField   nonuniform List<scalar> 
151078
(
3.33794e-08
5.56846e-08
-2.44937e-09
8.58441e-08
-5.35893e-08
1.12458e-09
4.1957e-08
1.22304e-07
-1.08576e-07
1.05676e-08
-2.30342e-09
1.37606e-08
-1.4371e-09
8.49519e-08
2.32935e-09
-1.2111e-09
1.9179e-08
-1.82657e-08
1.18324e-09
2.87747e-08
7.9904e-09
8.23451e-08
-4.83785e-08
1.21315e-07
-4.48538e-10
1.21932e-08
-2.97832e-08
3.99187e-09
-1.3571e-09
5.25673e-09
3.85675e-09
-1.83048e-08
3.61991e-08
-3.8644e-09
1.32229e-08
7.55934e-08
-8.36165e-08
8.63834e-08
-4.37587e-10
-1.67594e-09
6.6833e-09
1.11064e-09
-6.55481e-08
-7.07992e-09
3.54274e-10
1.19008e-08
-2.56335e-09
4.16602e-09
2.33076e-08
-8.28076e-09
2.81689e-08
6.24569e-08
-2.97899e-08
-6.39539e-09
4.11853e-08
8.80839e-08
-7.954e-09
-1.86483e-07
4.84152e-09
1.81193e-07
8.77208e-09
8.62437e-10
1.15214e-09
1.05659e-09
-6.7321e-09
1.4789e-08
5.93234e-10
-6.70894e-10
-1.21108e-10
-4.85339e-09
1.08423e-08
2.19294e-08
-4.35174e-08
-1.1897e-09
5.793e-08
3.09901e-08
8.57886e-08
-2.7602e-09
4.56262e-08
-7.26719e-09
-1.74289e-07
1.81119e-07
-1.19985e-09
2.70358e-09
2.75122e-08
7.92443e-10
-2.05107e-08
-6.81039e-10
1.61851e-08
-1.60947e-09
2.82618e-09
-8.16646e-10
1.33268e-09
8.82137e-09
-1.46771e-08
-2.1644e-10
1.78699e-08
1.56965e-09
2.85565e-09
-1.29935e-09
2.01817e-08
2.95787e-09
7.10902e-08
-4.58792e-08
9.14463e-08
5.90946e-08
3.33123e-10
4.48451e-08
-2.4747e-08
-2.64936e-08
-1.59235e-07
4.25557e-08
1.08725e-07
2.65245e-07
-2.6767e-07
1.57066e-07
-8.82433e-08
1.1237e-07
2.41271e-08
1.27777e-07
-1.41078e-09
3.61952e-09
-4.7419e-10
2.20861e-10
-1.57027e-09
3.62007e-09
7.88581e-09
2.44535e-09
-1.06357e-09
1.65979e-08
2.04238e-09
-1.62688e-08
2.80265e-08
9.71908e-10
-3.28382e-10
2.28556e-08
1.03339e-07
-1.0892e-07
6.35116e-08
1.68159e-07
-3.38299e-08
5.23628e-09
8.34079e-08
-2.32063e-09
1.23955e-08
-1.02316e-07
3.90218e-08
-1.01249e-07
-4.59335e-08
-2.71064e-08
4.92894e-08
2.95137e-08
6.33994e-10
1.12645e-08
1.93867e-10
-7.9623e-09
-1.26983e-09
4.02145e-09
1.10063e-08
2.11986e-10
1.79755e-09
-5.51357e-09
1.72051e-11
6.61261e-09
5.12752e-10
-2.82603e-10
7.29187e-09
1.60551e-09
-8.9579e-10
1.10195e-09
1.60582e-08
-1.52483e-09
3.6223e-09
2.82015e-09
1.5264e-08
4.70863e-08
5.17747e-08
-2.77708e-08
4.54138e-11
-1.07945e-09
9.76544e-08
-3.08471e-08
1.37028e-07
8.50955e-08
3.36745e-08
-3.58428e-08
4.93852e-08
-1.36136e-07
1.29306e-07
1.57202e-07
-7.93238e-08
7.94353e-08
1.60493e-07
2.53167e-08
-1.31416e-07
9.70583e-08
-1.81622e-08
5.7696e-08
1.70047e-07
2.17582e-08
1.28795e-10
5.41768e-10
1.50748e-09
-5.79281e-10
6.90964e-09
6.51782e-10
-6.1185e-09
1.11292e-08
-9.33211e-12
8.07951e-09
-4.25896e-10
8.00387e-10
5.89079e-09
-3.41136e-09
1.06281e-08
1.4919e-08
-3.89003e-10
2.72358e-09
4.84541e-10
2.00364e-08
6.1223e-08
3.89414e-09
5.94277e-08
1.26115e-07
-1.73844e-08
-1.32621e-07
1.48177e-07
9.33485e-08
-6.56818e-08
5.57412e-08
-8.26334e-10
4.25659e-09
-5.15894e-09
2.63719e-08
2.39051e-09
-1.1208e-08
6.22995e-08
-2.84367e-08
-3.35306e-08
5.91341e-08
-4.9854e-08
-3.63864e-08
7.71609e-08
5.1793e-08
3.68547e-08
2.64781e-09
-1.81995e-09
-9.95477e-10
1.68895e-09
1.1782e-09
2.15722e-08
-5.87692e-10
-1.81413e-08
-3.76696e-08
-1.08366e-09
1.31285e-09
7.64189e-11
1.43853e-09
-1.83097e-10
2.21941e-10
5.67798e-09
-3.36968e-10
1.1257e-09
4.97831e-09
5.9399e-10
-2.48417e-10
2.71283e-08
2.07405e-10
-2.31655e-10
1.97048e-08
1.75636e-08
7.86051e-08
-5.9817e-09
1.31286e-09
-3.3932e-09
2.33261e-08
2.01553e-08
3.75102e-08
5.0791e-08
-1.34846e-07
5.62843e-08
-9.79017e-08
-4.49587e-09
1.01318e-07
-9.49963e-08
1.1411e-07
7.85412e-08
-4.41246e-08
8.61562e-08
7.00242e-08
-8.28304e-08
1.20785e-07
-4.81236e-09
-8.22983e-08
-1.93133e-09
2.02472e-08
1.99892e-09
1.0706e-07
6.41896e-08
4.88877e-08
9.22523e-08
-3.08887e-07
1.02906e-07
2.31298e-07
-2.06289e-07
-5.53995e-09
9.76268e-08
7.33817e-08
-1.89171e-07
1.87672e-07
-5.99521e-08
1.66313e-07
-4.69275e-08
1.61816e-09
-1.27562e-09
2.46917e-09
1.57456e-09
-1.88529e-10
5.53773e-10
-9.16907e-10
3.51939e-09
5.11532e-09
-7.48709e-11
9.82975e-10
6.78241e-09
-2.28029e-09
2.31356e-08
-2.45508e-08
1.72835e-09
-2.13268e-10
-8.6672e-09
1.77802e-08
4.44786e-10
-5.76192e-10
1.7774e-08
1.21913e-08
1.02403e-07
-9.79206e-11
-1.63251e-10
1.43159e-08
4.59176e-08
7.47331e-08
6.67876e-08
4.93958e-08
1.10379e-08
9.60768e-08
3.47153e-08
1.72865e-07
-3.85826e-08
7.37818e-10
9.69343e-09
6.66246e-10
-3.71258e-09
1.83569e-09
-1.9686e-09
1.04971e-08
2.5192e-08
3.62641e-08
3.23211e-08
-3.30044e-08
3.28821e-08
-8.35072e-08
9.76932e-08
6.29749e-08
3.30564e-08
3.71444e-08
-3.33461e-08
4.26258e-10
8.68153e-09
-2.23439e-10
-7.35684e-09
6.19958e-09
-5.7373e-09
1.357e-08
1.54244e-11
1.11433e-09
1.75884e-10
9.25678e-10
-4.91506e-11
9.7161e-09
1.05199e-10
6.90588e-09
-2.06311e-09
3.14317e-10
8.03997e-09
-8.93079e-10
1.14068e-09
2.29032e-08
3.97742e-09
-6.91562e-08
8.64881e-08
-2.80223e-10
2.65301e-09
-3.57466e-10
1.76895e-08
1.08033e-07
1.43437e-07
-1.75588e-08
-5.8215e-08
7.23806e-08
2.32821e-10
2.28725e-09
-5.64842e-10
2.13708e-08
-1.97186e-08
4.16023e-08
7.77891e-08
4.58772e-08
-1.21044e-07
8.75158e-08
-3.48319e-08
7.13976e-08
-5.52568e-09
2.22823e-08
-3.3147e-08
-7.49602e-08
1.03295e-07
-1.56699e-08
1.31234e-07
-3.13315e-09
9.52047e-08
-7.18243e-08
8.15022e-08
1.65735e-08
5.59519e-08
-4.24059e-08
9.35139e-08
8.76979e-08
6.8744e-08
8.5636e-08
1.92036e-08
2.64423e-07
-2.08445e-07
9.60823e-08
5.17082e-08
9.90878e-08
-9.34404e-08
-1.98166e-07
-8.87511e-08
2.81377e-07
1.79588e-07
-1.66158e-07
1.14404e-07
-1.13321e-07
1.54004e-10
6.43579e-10
9.08685e-10
1.70434e-10
1.32926e-09
-5.87386e-10
8.89815e-09
-1.00373e-08
3.33315e-11
-3.19185e-09
6.46464e-09
1.91031e-10
6.35205e-09
-4.93378e-11
4.67071e-09
9.13406e-10
-1.20868e-09
1.47637e-08
-4.20381e-09
5.80172e-09
-1.5982e-09
1.94043e-09
5.8723e-09
1.15657e-08
8.94043e-08
1.13178e-08
-5.05543e-10
6.42613e-09
5.35638e-10
5.6964e-08
1.4201e-08
3.12378e-08
3.9242e-08
2.83425e-09
-5.54438e-09
2.83438e-08
-2.77589e-08
8.07346e-08
-7.05812e-09
5.49727e-08
5.79433e-08
-1.89146e-08
5.07094e-08
4.18307e-08
6.95303e-08
6.28782e-08
-1.00766e-07
1.47819e-07
2.02544e-09
-6.2138e-10
-6.77261e-10
3.67761e-09
-1.35163e-09
8.49198e-10
-1.29462e-08
2.39458e-08
5.68968e-08
3.74312e-08
5.58823e-08
-6.09924e-08
6.54723e-08
4.841e-09
-1.76509e-08
-1.06316e-07
1.86942e-07
7.41234e-08
-5.46299e-08
-5.39786e-09
3.7524e-08
1.97135e-09
-1.76853e-09
-3.68968e-09
5.32671e-09
3.08789e-08
1.9577e-09
-1.44257e-08
1.99172e-09
1.39542e-09
-4.03561e-10
1.64356e-09
-2.4563e-10
7.9502e-09
1.11846e-09
-1.316e-10
7.02425e-10
6.05483e-09
1.84422e-11
6.68905e-10
7.58544e-09
5.26249e-08
6.45901e-09
1.40003e-09
-2.74549e-09
2.69017e-08
-2.10916e-08
-4.38249e-10
1.9215e-09
2.35858e-08
4.7782e-08
-8.42779e-10
3.95489e-08
6.9988e-09
4.04258e-08
1.13998e-09
-1.58693e-09
2.04237e-08
6.40189e-08
1.31314e-07
7.61416e-08
1.04369e-08
6.13788e-08
-2.95143e-10
7.47809e-10
-9.54749e-10
2.18729e-08
3.03839e-08
-7.74978e-08
8.87161e-08
-8.6028e-08
1.62289e-07
5.35973e-08
-1.45431e-08
8.44299e-09
1.06932e-07
1.85314e-08
8.8958e-08
1.58118e-07
-5.63093e-08
1.48646e-09
1.86923e-07
2.08734e-07
8.29707e-08
9.22716e-08
-3.94729e-08
2.11181e-07
4.34575e-08
-1.28732e-08
5.98477e-08
-3.97694e-09
1.12753e-07
-3.37019e-08
5.04719e-09
-1.36116e-07
8.40151e-08
1.03809e-07
6.94801e-08
-2.42598e-09
-1.28888e-07
2.01358e-10
-1.15798e-07
8.29289e-08
8.4034e-08
6.12275e-08
-4.67273e-08
-1.2499e-08
-1.40816e-08
1.92972e-09
-2.3631e-09
-6.29379e-10
1.30629e-09
1.27015e-09
8.76359e-10
-3.69724e-10
4.86735e-09
-2.46579e-09
2.22917e-09
-4.16761e-10
1.86869e-09
3.41451e-09
3.71297e-09
-1.51382e-10
2.28493e-09
7.31318e-10
1.04866e-08
-1.32636e-09
6.31221e-10
-7.94047e-09
2.33993e-08
1.49649e-10
4.15964e-11
2.12381e-08
-1.56276e-08
6.23456e-08
2.83109e-08
3.27713e-10
-1.5701e-08
3.42856e-11
2.12113e-08
2.24063e-09
-4.88066e-09
2.06318e-08
5.24946e-08
6.81474e-08
3.26298e-08
2.04005e-08
6.63274e-08
2.08366e-08
-2.02077e-09
3.11941e-09
6.40862e-09
2.24477e-08
6.3128e-08
-4.84112e-09
-3.75058e-08
-1.52054e-08
4.56531e-08
7.67574e-08
6.63031e-10
-2.84743e-09
4.08297e-08
6.20671e-08
3.47874e-08
-5.50238e-08
-9.91237e-08
1.24496e-07
8.65025e-08
1.4975e-08
4.63417e-08
6.72705e-10
2.73414e-10
-4.50326e-09
8.75666e-09
-3.28513e-09
1.582e-08
2.12274e-10
-3.06611e-10
2.94853e-09
-2.22228e-09
4.16047e-08
-1.02607e-07
8.03058e-08
1.90676e-08
6.87509e-08
5.19853e-08
4.12057e-08
-1.67352e-08
-3.70704e-10
1.27101e-09
1.22822e-08
4.22544e-10
-5.42038e-09
-2.45664e-09
1.05243e-08
1.54732e-09
1.98765e-10
8.75786e-11
1.17624e-09
9.6208e-11
1.56579e-09
3.55505e-10
9.69715e-09
-7.5353e-09
-8.38649e-11
8.29937e-09
3.24834e-10
7.53889e-09
-8.4433e-11
-1.21254e-10
7.49599e-09
7.95219e-08
3.62311e-08
-3.5154e-08
4.35345e-08
-5.04224e-08
5.46757e-08
-6.18573e-10
9.47042e-10
1.67124e-08
9.86081e-09
-6.86285e-11
1.89545e-10
2.48359e-08
-1.37108e-09
4.15879e-08
3.43267e-08
1.14705e-07
5.61588e-08
7.63468e-08
7.87836e-08
8.51968e-08
-8.81129e-10
2.30716e-09
1.1361e-09
1.78616e-08
1.24142e-07
3.8502e-08
-2.85577e-09
6.49824e-08
-7.96183e-10
1.84002e-09
1.8838e-08
-4.76671e-10
7.3057e-10
7.30442e-09
1.43146e-08
2.06634e-08
5.26778e-08
8.89479e-08
7.75458e-08
-2.52748e-08
9.27248e-08
-6.73606e-09
6.09513e-08
-4.22703e-08
9.92587e-08
8.02118e-08
-9.05125e-08
1.34639e-07
1.95021e-08
-2.19556e-07
2.29353e-07
-6.61068e-08
1.54249e-07
-5.35041e-08
-7.20417e-09
-3.61738e-09
2.71698e-08
1.04644e-07
-4.88433e-08
-1.64648e-10
1.19606e-07
-2.16706e-07
1.65099e-08
1.60723e-07
-1.27285e-08
1.70822e-07
-6.52977e-08
7.71257e-08
5.6291e-08
-6.32338e-08
1.6417e-07
-7.79884e-08
1.80415e-07
-9.73792e-08
-5.60695e-09
9.66875e-08
8.09853e-08
-1.51176e-07
6.77646e-08
7.7269e-08
-6.36679e-08
-3.94048e-08
-7.78456e-08
1.17452e-07
3.07607e-09
6.95591e-08
-3.3654e-09
5.09861e-08
1.08143e-07
-9.56943e-08
4.87789e-08
7.80332e-08
-2.95809e-08
9.21002e-08
4.97267e-08
9.30619e-10
5.00763e-10
3.49941e-10
5.39587e-10
6.95694e-10
4.23074e-10
2.30337e-09
1.44162e-10
-2.89216e-09
8.24657e-09
-1.27429e-11
8.36729e-09
-6.08378e-09
1.12238e-10
-5.35225e-09
7.43642e-09
5.94995e-10
7.34507e-09
7.08651e-09
-6.47506e-10
2.02684e-09
-2.36337e-08
2.02655e-09
-1.59044e-09
1.52571e-08
-2.8017e-10
-3.33561e-10
8.31209e-09
7.19363e-10
-2.13627e-10
-2.90137e-09
3.08014e-09
-2.79825e-09
1.08881e-08
5.18739e-08
6.31495e-08
2.23399e-08
-6.64504e-08
7.24214e-08
-4.12831e-08
6.36573e-08
-1.20744e-09
1.01246e-09
1.41767e-08
7.22956e-09
-5.77003e-08
7.32201e-08
1.33554e-08
-9.41491e-10
6.25434e-09
1.9636e-09
3.8434e-08
1.18661e-07
5.0731e-08
1.87158e-08
2.09017e-10
-3.47819e-10
1.99028e-08
1.60952e-08
-6.12686e-08
4.03323e-08
3.39325e-08
-9.22358e-08
9.36705e-08
4.42184e-08
5.15456e-08
5.888e-09
3.05758e-08
1.90446e-08
-1.65831e-08
1.15953e-07
6.98447e-08
5.60223e-08
6.74451e-08
-8.28256e-10
1.77437e-09
-1.06889e-09
5.56274e-09
-5.97296e-11
9.74479e-10
-6.93129e-09
1.07584e-10
2.2273e-08
-6.88841e-10
7.79443e-10
-1.90154e-08
2.18733e-08
9.82522e-08
2.95032e-08
-4.74496e-08
1.26179e-07
4.08244e-08
3.59144e-08
-1.0526e-09
6.34391e-09
2.92071e-09
-1.22716e-09
-1.73837e-09
4.06979e-09
2.83104e-08
1.72821e-09
-1.64382e-08
1.99041e-09
-1.56267e-09
1.67757e-09
1.59728e-09
1.18074e-11
1.46955e-09
-1.96059e-10
5.93759e-09
3.33705e-09
-1.81279e-11
9.0207e-09
-7.7183e-10
-2.57065e-10
6.70608e-10
6.24422e-09
-1.49169e-10
6.31824e-09
-1.23384e-10
2.26522e-09
4.87748e-09
7.06874e-08
-2.67052e-09
8.24361e-08
7.729e-08
1.33932e-08
-3.60075e-08
4.68561e-08
3.1381e-08
-3.58983e-12
7.60746e-10
1.82624e-08
-1.08849e-08
1.58483e-09
-2.3758e-09
2.15366e-08
-1.23005e-07
1.27009e-07
-3.81457e-09
-1.44657e-09
1.83234e-09
1.35653e-08
-1.48707e-08
5.10136e-10
-1.04263e-09
1.40321e-08
1.75426e-09
-8.32935e-08
1.15866e-07
1.82055e-07
1.53496e-07
-6.13189e-08
7.72406e-08
1.61452e-07
8.08483e-09
7.02918e-08
5.67379e-09
-4.31526e-10
2.78794e-10
1.23405e-08
1.32958e-07
4.97152e-08
9.17964e-08
-1.07106e-07
8.02923e-08
1.10222e-08
-7.2769e-10
1.24889e-09
7.29458e-09
5.74232e-08
3.51038e-08
9.85002e-10
-1.25093e-09
1.85926e-08
2.51433e-10
6.40438e-12
1.97306e-08
5.69635e-08
6.31418e-08
-3.68674e-08
-1.44435e-07
1.57201e-07
2.94466e-08
-1.17599e-08
1.82629e-07
-1.93208e-07
1.17422e-07
9.67865e-09
6.67779e-08
-4.26604e-08
-8.62444e-08
7.54007e-08
-1.8416e-07
-1.26653e-08
-4.25981e-08
2.03156e-07
8.48842e-08
-6.36515e-08
-9.09289e-09
1.29035e-07
-8.10202e-08
1.81539e-07
-1.1207e-07
1.15067e-07
-4.93362e-08
4.55914e-08
-4.67627e-08
4.14836e-08
1.00625e-07
1.91082e-09
1.78436e-07
-5.22452e-08
4.0508e-08
-3.34852e-08
-8.16719e-08
1.10032e-07
1.67836e-08
-1.40857e-09
-6.06235e-08
-4.38452e-10
2.48032e-08
-3.04582e-09
-2.43259e-09
2.04463e-08
5.32676e-09
-1.79032e-09
5.78316e-08
-3.72593e-09
-4.21006e-08
-5.20275e-08
6.45473e-08
6.19607e-08
-5.43346e-08
-5.82465e-10
1.65725e-09
1.85877e-09
-1.37075e-09
-1.05931e-09
1.52149e-09
1.55766e-09
1.32331e-09
3.3255e-10
-9.27821e-09
-4.98804e-10
5.29441e-09
-8.80925e-11
2.70224e-09
-2.54443e-11
-1.09911e-09
-1.66468e-09
4.17462e-09
-3.92143e-10
4.42367e-09
2.19745e-09
4.61854e-09
-3.03531e-10
2.08858e-09
6.63497e-11
6.78805e-09
-3.64875e-09
2.22856e-09
2.78149e-08
-1.11376e-08
2.15252e-08
1.64798e-09
-1.38158e-08
-2.91719e-09
2.33971e-08
-1.91118e-08
1.00208e-09
-9.19234e-10
1.61276e-08
2.01611e-10
1.57334e-10
-8.5826e-09
1.15202e-07
1.2411e-07
5.83715e-08
-1.28046e-08
1.80904e-08
4.05813e-08
1.88026e-08
6.3858e-10
-2.53652e-10
2.00461e-08
4.2197e-10
-1.28238e-08
-4.26571e-10
2.00579e-08
4.47077e-08
3.0476e-08
6.30757e-08
1.20247e-08
-4.06405e-10
2.46182e-10
8.03829e-09
5.14465e-08
-4.63269e-08
8.39887e-08
2.69746e-08
4.28723e-08
-4.24837e-08
1.13677e-07
8.42047e-08
4.80715e-08
2.92406e-08
8.03551e-08
-1.52902e-07
7.75634e-08
1.45183e-07
-1.42678e-07
1.87316e-08
1.91392e-07
1.02357e-09
1.51973e-10
-2.52431e-09
1.24757e-10
8.06987e-09
2.68599e-10
-6.37151e-09
7.85683e-09
-8.2373e-10
3.02874e-09
-1.01092e-09
1.66094e-09
6.3526e-09
4.80354e-08
-8.67132e-10
9.43386e-10
1.16486e-08
4.5145e-10
-6.30204e-09
5.6696e-09
-1.51344e-09
1.18117e-09
6.13177e-10
1.87296e-09
-2.13514e-10
9.89531e-11
1.24126e-09
1.18595e-09
3.78065e-10
9.68101e-10
5.02229e-11
6.55439e-09
-3.40488e-09
4.85701e-10
7.84105e-09
-4.49191e-10
4.61845e-09
-5.21321e-09
1.29508e-10
4.82201e-09
1.74326e-09
-1.16919e-10
4.18635e-09
3.6183e-09
-1.713e-10
2.14355e-09
2.93822e-10
6.5747e-09
7.612e-11
6.79605e-09
-5.33256e-09
4.00125e-08
-1.41786e-07
1.01217e-07
5.57017e-08
-3.85633e-08
6.75684e-08
8.72372e-09
-8.48836e-10
1.29912e-09
9.08843e-09
-6.32479e-10
9.47823e-09
9.08116e-10
1.17828e-08
9.79253e-08
-1.60383e-07
1.89467e-07
5.47206e-08
-5.95778e-08
6.11943e-08
1.22189e-09
-2.05335e-09
-9.47366e-09
2.38704e-08
1.11577e-09
-1.0378e-09
2.38663e-08
-9.9122e-09
5.2442e-08
5.80914e-08
1.73178e-07
5.03366e-08
4.00892e-09
7.25907e-08
4.80378e-08
2.36882e-08
4.91813e-08
4.37062e-10
-1.2e-10
2.07472e-08
9.08782e-08
4.54938e-08
-3.41371e-09
1.74304e-08
3.35147e-08
-1.22988e-09
5.92548e-09
9.17972e-08
2.13007e-08
1.34629e-08
1.37939e-09
-1.93671e-09
1.98766e-08
8.11178e-08
1.66595e-08
-4.72727e-08
6.5717e-08
-2.57296e-08
4.11382e-08
1.38471e-10
-8.65653e-10
-2.15076e-10
1.95348e-08
3.82375e-10
4.70741e-12
-1.38407e-09
2.07275e-08
3.93133e-08
-2.23793e-08
5.37895e-08
1.02627e-07
5.17213e-09
7.48301e-08
1.27259e-07
3.22449e-08
-4.20816e-08
-1.12553e-07
7.95708e-08
-3.8147e-08
1.01276e-07
4.45899e-10
-3.29008e-08
-2.58229e-09
3.9836e-08
-6.74935e-09
9.81058e-08
-1.04022e-07
1.65078e-07
1.15767e-07
7.53607e-08
1.20286e-08
4.77493e-08
-1.1498e-07
1.01337e-07
2.08766e-07
7.53997e-08
-7.15078e-08
-5.43989e-11
6.75418e-08
-1.8109e-09
-6.91645e-08
2.20322e-09
-2.88183e-09
9.92067e-08
4.23764e-09
1.06212e-07
-9.88107e-08
9.39721e-08
4.77449e-08
-1.1262e-09
-3.43357e-08
4.08641e-10
7.47873e-08
3.72642e-08
-2.01968e-09
-5.5955e-09
2.72728e-08
-2.2122e-08
8.03758e-11
7.79802e-10
2.05762e-08
5.67865e-09
-2.02786e-09
-8.49778e-10
7.54146e-09
2.53147e-09
1.69788e-08
-8.54313e-10
-1.97009e-09
2.13518e-08
-1.83636e-09
-2.05272e-09
9.71447e-10
5.09846e-10
-2.19394e-10
9.2779e-10
7.54376e-10
3.74967e-10
8.96862e-10
3.57265e-10
1.29576e-09
6.9566e-10
1.05071e-08
-3.67975e-09
4.46626e-10
-4.38589e-09
8.28948e-09
-7.69199e-09
-3.08243e-10
5.98189e-09
4.31281e-11
-3.40317e-09
2.4205e-10
6.90878e-09
1.0359e-10
-4.34511e-09
6.86094e-09
3.98546e-09
-1.23382e-10
2.51956e-09
-2.63893e-09
3.91464e-09
1.27234e-08
-2.53543e-08
-2.02986e-09
1.36643e-08
4.71809e-08
-2.85729e-08
-7.6576e-10
1.27843e-09
1.00606e-08
5.31389e-10
-9.31226e-09
1.59139e-08
-2.0799e-09
1.70134e-08
8.53845e-08
1.24797e-07
2.97894e-08
5.15683e-08
1.3703e-08
-2.04852e-08
6.08129e-08
-2.84118e-08
4.67879e-08
1.21256e-08
-7.55208e-10
8.88596e-10
7.78711e-09
7.07301e-11
1.20116e-08
-3.17325e-10
8.29292e-09
4.25384e-08
1.93074e-08
2.34789e-08
1.93057e-08
2.40266e-09
-4.41631e-09
2.21775e-08
9.24205e-08
-7.08116e-08
2.98376e-08
-6.65765e-08
1.1267e-07
3.07837e-08
-8.85807e-08
8.59068e-08
5.26333e-08
-9.76816e-09
-6.34072e-08
1.78396e-07
3.41283e-08
6.40766e-08
1.05478e-07
-9.1991e-08
1.38312e-07
-5.65364e-08
2.47545e-07
-1.64737e-07
1.24062e-07
-2.79371e-08
9.52672e-08
-4.48606e-10
1.59693e-09
-1.1947e-09
1.61527e-09
-1.92942e-10
1.06757e-09
-2.98975e-10
1.93168e-09
-3.29221e-10
1.94696e-08
2.58671e-08
9.92206e-09
1.89862e-08
9.35344e-10
-1.23322e-08
-1.23682e-09
2.80111e-09
-1.40627e-09
2.12926e-09
-9.55061e-10
1.33035e-09
-5.29733e-10
1.62861e-09
8.94035e-10
-1.01875e-09
9.34739e-10
3.09416e-10
8.14926e-10
6.80087e-10
3.34566e-10
1.35197e-09
1.35364e-09
2.84228e-09
-2.37966e-10
3.10123e-09
-1.97982e-10
3.16372e-09
4.24284e-09
3.54348e-10
-3.14367e-09
8.62965e-09
3.71847e-10
8.91864e-09
-3.35271e-09
1.65178e-10
7.30051e-09
4.01956e-10
7.10645e-09
3.02549e-11
-3.79752e-10
7.06267e-09
6.84188e-11
8.41034e-11
7.0259e-09
-1.91537e-08
3.64438e-08
6.72957e-08
1.04217e-08
9.35906e-08
3.1411e-08
3.71838e-08
5.87965e-10
-3.05605e-10
1.82843e-08
-4.34886e-08
1.88682e-08
2.55284e-08
-8.46203e-09
6.67896e-10
-1.20293e-09
2.07798e-08
1.27316e-07
4.59139e-08
1.62371e-08
9.04518e-08
-3.67691e-08
-5.56712e-08
2.19605e-08
6.07258e-08
1.27784e-07
9.63711e-08
-3.76986e-08
-1.48889e-09
1.9048e-09
1.39768e-08
-1.24563e-09
1.83975e-09
1.48143e-08
-6.62813e-10
6.76168e-10
9.06067e-09
2.17333e-07
9.50209e-08
2.60049e-08
5.21524e-08
3.49883e-08
6.40416e-08
8.04723e-08
4.92506e-09
-1.69997e-10
-2.52222e-10
1.62443e-08
6.94777e-08
4.74054e-08
1.28118e-07
4.14372e-08
7.89619e-08
4.24215e-08
-1.98247e-08
-8.2268e-08
1.08018e-07
2.3729e-08
2.07955e-08
1.93001e-08
3.50052e-08
5.27045e-10
-1.24581e-09
1.97297e-08
8.59047e-09
9.96171e-10
7.15311e-08
2.72373e-10
-8.05815e-08
1.46026e-07
9.62032e-08
-5.47927e-08
-5.24483e-09
1.01233e-07
7.94671e-11
-5.44606e-10
2.00047e-08
-6.3932e-08
-1.16327e-09
6.37112e-08
1.97473e-09
-3.77332e-09
2.74512e-08
5.36864e-08
8.69031e-08
7.65747e-08
5.58563e-08
1.25085e-07
2.51056e-08
-4.78311e-08
7.77718e-08
2.30421e-09
5.86161e-08
-2.59192e-09
3.38436e-08
-2.10392e-09
-2.85862e-09
2.79802e-09
7.08816e-08
7.84213e-10
1.05068e-07
3.88878e-09
5.61217e-08
4.78995e-08
6.91971e-08
1.22288e-07
-4.47008e-08
1.19464e-07
-2.5678e-08
9.83307e-08
2.00201e-08
-8.86382e-08
-4.82032e-08
2.12241e-07
2.48243e-08
-1.69103e-08
-8.23931e-09
2.70872e-10
9.36352e-09
1.54902e-08
-1.84027e-09
-1.79902e-08
2.83267e-08
1.23021e-09
9.87247e-09
-2.81327e-09
2.82201e-08
1.8039e-09
4.14233e-08
6.8677e-08
4.29483e-08
9.0029e-09
4.20209e-08
1.49357e-08
-1.50271e-09
2.68681e-08
-1.20884e-08
5.64587e-10
1.8193e-08
8.57643e-09
-1.92105e-09
-5.07202e-09
1.10988e-08
-8.88855e-09
-6.34208e-13
4.6449e-10
2.4187e-08
7.83713e-09
1.84373e-09
-6.09891e-10
1.50272e-09
9.65486e-10
5.88998e-09
-1.6831e-10
-4.6301e-10
7.29553e-09
-8.90189e-10
-3.68344e-10
1.0002e-08
1.26084e-08
2.28353e-09
-6.16428e-10
-7.32013e-10
1.68849e-09
-1.74834e-09
1.22071e-09
-7.77426e-10
1.35369e-09
-8.48635e-10
1.32719e-09
7.44988e-10
4.27392e-10
-7.81016e-10
4.26326e-09
-9.67968e-09
-6.23494e-10
4.59357e-09
-2.00739e-10
3.37935e-09
2.0603e-10
-3.37243e-09
5.90988e-09
-1.29624e-09
3.74938e-09
-2.14591e-10
2.61878e-09
1.38901e-11
4.1296e-09
2.78818e-09
6.40711e-10
8.03089e-09
2.90282e-08
1.55789e-09
-1.91538e-09
-1.25392e-08
2.56201e-08
-1.14311e-08
1.91762e-09
2.59758e-08
2.44349e-08
3.66815e-11
-1.21857e-08
1.5052e-09
2.07044e-08
-1.94095e-09
9.46887e-08
3.14753e-10
-5.65771e-08
6.99653e-08
3.01505e-08
-7.56258e-08
1.06288e-07
-1.09803e-08
8.79187e-08
-8.89208e-08
3.22401e-08
5.75693e-08
8.62521e-10
-7.31555e-10
1.96678e-08
-7.36474e-08
4.32091e-08
3.0121e-08
2.32898e-09
-1.95758e-08
-3.86638e-09
2.94061e-08
7.84446e-08
4.19606e-08
6.29886e-08
-8.56435e-08
-7.80875e-08
1.15632e-07
6.86914e-09
-6.45336e-10
1.24591e-09
1.47078e-08
-3.15817e-08
4.1562e-08
3.45766e-08
2.56398e-07
-1.26077e-08
5.41595e-08
-2.10653e-08
3.41696e-08
1.3168e-07
8.79281e-08
8.88627e-09
8.02588e-08
1.13339e-07
2.09294e-10
2.97552e-10
-2.23157e-11
6.65064e-09
6.84143e-09
2.79242e-10
-4.25365e-09
7.83091e-09
-4.1136e-10
-2.8209e-10
2.70709e-08
-1.83856e-08
4.59325e-10
5.06102e-10
5.86278e-10
5.94917e-10
8.35713e-10
-5.6495e-10
1.81333e-09
1.92618e-09
-6.1959e-10
1.48621e-09
1.48151e-09
-8.39246e-11
1.46615e-09
4.27892e-11
1.37927e-09
1.84512e-10
6.6684e-09
-2.59512e-09
2.11192e-10
7.29466e-09
-4.71927e-10
4.75802e-09
-3.6462e-10
5.15353e-09
-2.16316e-10
3.04223e-09
1.41964e-09
-7.67866e-11
5.78767e-09
1.17435e-10
7.1363e-09
-1.40403e-11
7.24028e-09
4.9993e-10
9.92034e-09
1.97191e-07
-5.89854e-08
5.41429e-08
-4.04088e-09
1.80138e-08
7.33129e-08
3.65765e-08
6.4445e-09
-1.03093e-09
1.40707e-09
1.14637e-08
4.17467e-08
-6.85883e-08
5.23701e-08
-2.71689e-08
6.77126e-08
-5.04437e-10
1.10273e-08
2.95534e-10
9.96139e-09
9.19362e-08
4.44295e-08
-2.2304e-07
1.68972e-07
7.03053e-08
-7.1047e-08
3.4954e-08
-2.20156e-08
7.00886e-08
7.94882e-09
1.83337e-08
5.61424e-08
1.91767e-09
-2.72269e-09
-1.07526e-08
2.55344e-08
4.47595e-08
-5.94951e-10
1.42701e-08
-1.64707e-10
1.30381e-09
5.29033e-10
-3.10614e-10
2.2101e-08
-1.32587e-08
4.90658e-08
-5.47726e-08
9.87146e-08
2.50353e-09
8.34054e-08
5.02975e-08
5.12512e-08
7.27716e-08
1.62912e-08
-8.25093e-08
5.81419e-08
2.41152e-08
6.05454e-10
-2.46799e-10
2.23302e-08
-3.73525e-08
8.72615e-08
-2.71906e-08
1.17957e-07
8.55524e-09
-4.46883e-08
7.75703e-08
-5.58773e-08
1.06854e-07
9.12749e-08
3.01507e-08
-1.34074e-08
3.14889e-08
-4.00369e-09
9.39901e-08
8.74995e-08
-3.02045e-10
1.08473e-09
2.58162e-08
1.27506e-07
1.95167e-08
-4.01083e-08
4.77074e-08
6.29539e-08
-4.59762e-08
8.42552e-08
6.12461e-08
5.85496e-10
-1.53445e-09
-1.33766e-09
2.22913e-08
8.05251e-08
2.47289e-09
-1.92867e-08
-2.21466e-08
9.88983e-08
3.60446e-10
-1.36644e-09
-1.31696e-09
2.97742e-08
6.91466e-08
1.06143e-07
2.34821e-08
-7.2051e-08
1.04425e-07
-3.44292e-08
8.30169e-08
-9.06569e-09
-1.64034e-08
1.61297e-09
2.61604e-08
2.95134e-08
-2.40453e-08
-1.88499e-09
1.42727e-08
-1.61176e-09
8.05518e-10
5.44582e-08
4.32255e-08
-4.39684e-08
5.74387e-08
7.89545e-08
1.0298e-07
8.35831e-08
-8.05294e-08
1.00864e-07
9.97586e-09
-6.57955e-09
-3.20427e-09
7.88247e-11
3.22701e-09
5.55734e-09
-6.48764e-10
-6.39409e-09
1.04737e-08
3.77597e-10
3.76608e-09
-1.70228e-09
1.10345e-08
4.45347e-10
2.09472e-08
1.9586e-08
3.37115e-08
-1.72793e-09
2.1594e-08
2.21548e-08
5.66981e-09
-1.01279e-09
1.09219e-08
-4.84031e-09
1.52776e-10
6.67457e-09
2.97711e-09
-6.50801e-10
-3.08568e-09
2.53781e-09
-2.07912e-09
1.63474e-10
8.81931e-09
1.20182e-08
1.16906e-08
-1.24979e-09
1.62768e-09
3.0024e-10
2.2027e-10
1.11414e-09
1.38494e-09
-1.21079e-10
3.02963e-09
4.01863e-09
-1.81882e-09
1.55448e-09
2.22845e-08
2.09216e-08
-2.15107e-09
1.6687e-09
7.70506e-10
-2.06272e-09
8.22803e-10
6.39112e-10
-6.35988e-10
1.26001e-09
6.39334e-10
4.99766e-10
8.00007e-10
5.41074e-10
1.70744e-09
5.04322e-10
-4.23046e-09
9.54729e-09
-3.71654e-09
5.96095e-10
9.63163e-09
1.19665e-10
-3.9536e-09
7.24996e-09
-6.72945e-10
2.79713e-10
7.33119e-09
6.27488e-10
-6.62668e-09
1.11163e-08
2.63072e-09
-2.21408e-10
4.97625e-09
-2.94643e-08
3.12237e-09
-1.84306e-09
1.21573e-08
3.04628e-09
-2.18475e-09
1.25729e-08
-2.94575e-08
5.53976e-08
-5.95695e-10
8.51128e-10
8.73192e-10
-3.68144e-08
4.35541e-08
-3.39729e-09
2.07646e-08
-4.65571e-08
7.88049e-08
-4.32281e-08
1.08741e-08
7.47176e-08
-1.68773e-07
1.48255e-07
1.33007e-08
-9.42464e-10
5.98271e-10
6.7113e-09
-8.4012e-08
1.10267e-07
-2.15363e-09
1.86454e-08
2.79001e-09
1.01244e-08
2.29518e-08
3.32995e-08
8.35782e-08
2.89029e-09
-5.10119e-09
3.02194e-08
1.57796e-08
1.97317e-07
1.9076e-07
-7.55308e-08
-1.04961e-07
1.67884e-07
-1.26965e-07
3.03686e-08
5.07169e-08
6.24072e-08
2.43376e-08
1.46148e-07
-8.25573e-08
-1.07056e-07
1.53257e-07
-3.73151e-08
-1.1644e-08
7.09143e-08
2.09884e-08
3.18365e-08
1.30112e-09
1.42204e-09
-8.45245e-10
2.21435e-09
-9.94453e-11
1.36571e-09
-4.19798e-10
1.4667e-09
8.893e-10
1.02891e-09
5.86132e-10
2.27186e-10
1.18223e-09
1.51502e-09
1.4949e-09
2.10638e-09
2.10792e-09
-2.87455e-10
3.817e-09
-1.67363e-10
3.60638e-09
3.3512e-09
5.69338e-10
-3.53424e-09
9.64059e-09
-1.45837e-10
4.66043e-09
4.39829e-11
1.54491e-10
8.07705e-09
-4.66027e-09
2.07106e-10
8.29394e-09
-8.40799e-11
9.54906e-09
1.31743e-10
-3.63268e-10
8.0573e-09
4.6384e-11
-4.36535e-10
1.06709e-08
8.66727e-08
1.06478e-07
1.93392e-07
5.32911e-08
-4.10282e-08
6.105e-08
6.34884e-08
1.16286e-08
-3.85405e-08
2.13791e-08
4.35164e-08
1.42095e-09
-2.94907e-09
2.40191e-08
2.60331e-08
-4.51961e-08
1.09195e-07
4.14887e-08
-2.05464e-08
4.67703e-08
2.14164e-08
2.03678e-08
1.36813e-09
-2.5532e-09
2.54166e-08
-8.59979e-08
3.0421e-08
1.00006e-07
2.63139e-08
-1.06872e-07
1.50864e-07
-5.13545e-08
-4.17604e-08
7.04617e-08
-1.00377e-07
7.78654e-08
4.08456e-08
-4.69577e-08
-1.06082e-09
1.26564e-09
1.11436e-08
-9.3574e-10
1.6759e-09
2.46295e-08
4.46115e-08
1.45181e-09
-8.72663e-11
-4.6498e-10
8.21513e-09
1.15354e-07
1.8881e-07
5.07622e-08
-6.05e-08
-1.73289e-09
7.13152e-08
7.92742e-08
-1.08777e-07
1.10746e-07
-1.72591e-09
1.95926e-09
1.38385e-08
8.25831e-09
6.66643e-08
1.28863e-07
1.71248e-07
-4.14426e-08
4.2609e-08
1.32794e-07
1.21884e-07
-1.66378e-10
-8.07873e-10
2.5256e-08
4.14212e-08
-6.32061e-08
8.09898e-08
1.11337e-07
-1.28674e-08
1.49787e-08
-1.41847e-08
8.34611e-08
7.86977e-08
8.32182e-08
-5.85823e-09
-5.4021e-10
7.39398e-10
2.07257e-08
-1.6727e-08
3.82557e-08
1.32127e-08
4.743e-08
-1.65544e-09
3.85941e-08
-1.7244e-09
1.2803e-08
2.56302e-09
1.61325e-08
4.28046e-08
-2.11812e-09
3.54373e-08
7.28241e-08
4.60104e-08
-5.12366e-08
1.09651e-07
2.06261e-09
-2.86259e-09
-5.61432e-09
4.90868e-10
9.59901e-09
8.16714e-09
-1.4292e-09
1.73043e-08
-1.2921e-10
-9.05156e-09
-5.11922e-10
4.8159e-09
4.21496e-10
2.54126e-08
-4.68905e-10
2.88408e-10
1.72447e-08
-3.207e-08
9.15713e-08
3.13616e-08
4.58584e-08
5.86051e-08
3.06151e-08
2.29382e-09
-1.48511e-09
-7.29881e-10
5.78671e-10
1.06638e-09
-1.22837e-09
2.18463e-09
8.3194e-10
2.5373e-09
3.60408e-08
-2.37963e-08
4.15634e-08
1.23782e-09
2.51377e-09
-1.12318e-09
1.31953e-09
5.43437e-10
1.78325e-09
3.83782e-09
4.03535e-09
-3.03648e-10
5.34986e-10
7.28875e-10
4.33229e-10
7.98871e-09
7.43802e-09
4.63663e-10
1.29815e-08
-2.84327e-10
1.66135e-10
9.42117e-09
-7.56623e-10
2.03145e-09
-6.56495e-10
2.07539e-09
-6.76421e-10
1.4352e-09
1.57949e-09
-1.29781e-09
2.46638e-09
5.67706e-10
9.18322e-10
-5.54878e-10
4.11299e-09
-6.48693e-10
4.05763e-09
-1.35023e-10
1.62615e-10
4.38435e-09
-3.49372e-10
2.35374e-09
-7.23691e-10
6.35233e-09
3.33407e-09
8.03786e-10
1.14471e-08
-1.38121e-09
7.91613e-10
2.0914e-08
2.06587e-08
1.05951e-09
-7.12278e-09
-2.02256e-09
-5.74616e-08
6.6302e-08
7.96112e-08
-8.1749e-08
2.98891e-09
4.68584e-10
-5.26525e-10
2.15899e-08
4.46976e-08
2.32396e-08
1.14764e-07
-1.20517e-08
-2.39074e-08
5.95227e-08
1.08434e-07
1.72041e-08
1.49063e-08
4.22525e-08
1.75588e-08
1.10566e-07
5.25955e-08
2.91881e-08
1.36627e-08
1.33989e-09
-1.42715e-09
2.54439e-08
1.04033e-07
7.0192e-08
5.76334e-08
4.11053e-08
3.18767e-08
4.24608e-09
-7.61279e-09
-1.99609e-08
3.3452e-08
3.9247e-08
1.54897e-07
6.33339e-08
-1.64634e-09
2.14824e-09
8.17223e-09
2.15452e-08
1.0484e-07
9.18736e-08
-5.9534e-09
4.90179e-08
-5.16905e-08
1.78103e-07
4.14713e-08
3.86186e-08
1.01401e-07
-1.83892e-08
6.37152e-08
1.27038e-07
-7.56043e-08
9.47137e-08
9.59873e-08
-2.52875e-08
7.41276e-08
3.56429e-10
3.77388e-10
7.00864e-10
6.75855e-10
6.23485e-10
-6.28447e-10
2.08709e-09
8.46995e-10
3.60833e-11
1.67831e-09
-9.37692e-10
1.76673e-09
1.99865e-09
-3.29115e-11
1.65956e-09
-7.54972e-11
2.22826e-09
3.72932e-10
8.4714e-09
4.17637e-10
8.96213e-09
-3.24131e-10
3.80611e-09
-2.49784e-10
8.99862e-09
-7.33254e-11
2.7638e-09
-5.33815e-10
4.44032e-09
2.66153e-09
-8.4445e-11
9.10385e-09
-1.57141e-10
7.23769e-09
-5.35709e-10
4.34542e-09
5.13682e-09
-1.75248e-08
8.29743e-08
5.36744e-08
1.22193e-07
1.04628e-08
1.20467e-08
2.58377e-08
-3.86058e-08
5.62846e-08
4.4305e-08
9.22902e-09
-6.86106e-10
8.6819e-10
1.4608e-08
7.53754e-08
3.3632e-08
4.06421e-08
5.00426e-08
3.53804e-08
5.60013e-08
5.3195e-08
-1.61991e-09
1.36785e-08
2.25786e-09
1.11001e-08
-7.77205e-08
1.34455e-07
5.43144e-08
1.13322e-07
-1.96087e-08
2.37168e-08
1.46755e-07
-8.85012e-08
3.66817e-08
1.80014e-08
8.09931e-08
-1.28193e-07
1.41238e-07
2.78004e-08
1.13798e-09
-1.60346e-09
2.19898e-08
-1.03807e-08
-1.971e-09
1.52441e-08
2.70071e-09
8.65577e-09
4.09559e-10
-4.77207e-11
2.08348e-08
2.28619e-08
-4.23448e-08
5.50384e-08
6.65806e-08
2.44482e-08
4.39529e-08
1.99409e-08
3.70567e-08
1.98057e-09
-3.0162e-09
2.41031e-08
1.02347e-09
-1.17482e-09
2.12127e-08
-6.16909e-08
1.28888e-07
-5.32903e-10
1.30029e-07
1.23262e-07
8.00169e-08
8.33164e-08