# vtk DataFile Version 2.0
DGS printing
ASCII
DATASET UNSTRUCTURED_GRID
POINTS  240  floats
21.29260 20.78827 22.31800 21.25927 20.74440 22.31800 21.21540 20.77773 22.31800 
21.24873 20.82160 22.31800 21.29260 20.78827 21.59701 21.25927 20.74440 21.59701 
21.21540 20.77773 21.59701 21.24873 20.82160 21.59701 21.28502 20.75943 22.31800 
21.23043 20.75198 22.31800 21.22298 20.80657 22.31800 21.27757 20.81402 22.31800 
21.28502 20.75943 21.59701 21.23043 20.75198 21.59701 21.22298 20.80657 21.59701 
21.27757 20.81402 21.59701 21.29260 20.78827 21.95751 21.25927 20.74440 21.95751 
21.21540 20.77773 21.95751 21.24873 20.82160 21.95751 21.27757 20.81402 21.95751 
21.23043 20.75198 21.95751 21.28502 20.75943 21.95751 21.22298 20.80657 21.95751 
21.28718 20.80342 21.59700 21.27442 20.74982 21.59700 21.22082 20.76258 21.59700 
21.23358 20.81618 21.59700 21.28718 20.80342 20.87601 21.27442 20.74982 20.87601 
21.22082 20.76258 20.87601 21.23358 20.81618 20.87601 21.29190 20.77398 21.59700 
21.24498 20.74510 21.59700 21.21610 20.79202 21.59700 21.26302 20.82090 21.59700 
21.29190 20.77398 20.87601 21.24498 20.74510 20.87601 21.21610 20.79202 20.87601 
21.26302 20.82090 20.87601 21.28718 20.80342 21.23651 21.27442 20.74982 21.23651 
21.22082 20.76258 21.23651 21.23358 20.81618 21.23651 21.26302 20.82090 21.23651 
21.24498 20.74510 21.23651 21.29190 20.77398 21.23651 21.21610 20.79202 21.23651 
21.28743 19.80301 20.81800 21.27401 19.74957 20.81800 21.22057 19.76299 20.81800 
21.23399 19.81643 20.81800 21.28743 19.80301 19.37603 21.27401 19.74957 19.37603 
21.22057 19.76299 19.37603 21.23399 19.81643 19.37603 21.29179 19.77351 20.81800 
21.24451 19.74521 20.81800 21.21621 19.79249 20.81800 21.26349 19.82079 20.81800 
21.29179 19.77351 19.37603 21.24451 19.74521 19.37603 21.21621 19.79249 19.37603 
21.26349 19.82079 19.37603 21.28743 19.80301 20.09702 21.27401 19.74957 20.09702 
21.22057 19.76299 20.09702 21.23399 19.81643 20.09702 21.26349 19.82079 20.09702 
21.24451 19.74521 20.09702 21.29179 19.77351 20.09702 21.21621 19.79249 20.09702 
21.29090 20.79549 19.37600 21.24151 20.81990 19.37600 21.21710 20.77051 19.37600 
21.26649 20.74610 19.37600 21.29090 20.79549 20.81797 21.24151 20.81990 20.81797 
21.21710 20.77051 20.81797 21.26649 20.74610 20.81797 21.27127 20.81792 19.37600 
21.21908 20.80027 19.37600 21.23673 20.74808 19.37600 21.28892 20.76573 19.37600 
21.27127 20.81792 20.81797 21.21908 20.80027 20.81797 21.23673 20.74808 20.81797 
21.28892 20.76573 20.81797 21.29090 20.79549 20.09698 21.24151 20.81990 20.09698 
21.21710 20.77051 20.09698 21.26649 20.74610 20.09698 21.28892 20.76573 20.09698 
21.21908 20.80027 20.09698 21.27127 20.81792 20.09698 21.23673 20.74808 20.09698 
21.28377 20.80814 17.93410 21.22886 20.81277 17.93410 21.22423 20.75786 17.93410 
21.27914 20.75323 17.93410 21.28377 20.80814 19.37607 21.22886 20.81277 19.37607 
21.22423 20.75786 19.37607 21.27914 20.75323 19.37607 21.25727 20.82182 17.93410 
21.21518 20.78627 17.93410 21.25073 20.74418 17.93410 21.29282 20.77973 17.93410 
21.25727 20.82182 19.37607 21.21518 20.78627 19.37607 21.25073 20.74418 19.37607 
21.29282 20.77973 19.37607 21.28377 20.80814 18.65508 21.22886 20.81277 18.65508 
21.22423 20.75786 18.65508 21.27914 20.75323 18.65508 21.29282 20.77973 18.65508 
21.21518 20.78627 18.65508 21.25727 20.82182 18.65508 21.25073 20.74418 18.65508 
21.28044 21.81162 19.37600 21.22538 21.80944 19.37600 21.22756 21.75438 19.37600 
21.28262 21.75656 19.37600 21.28044 21.81162 20.81797 21.22538 21.80944 20.81797 
21.22756 21.75438 20.81797 21.28262 21.75656 20.81797 21.25246 21.82193 19.37600 
21.21507 21.78146 19.37600 21.25554 21.74407 19.37600 21.29293 21.78454 19.37600 
21.25246 21.82193 20.81797 21.21507 21.78146 20.81797 21.25554 21.74407 20.81797 
21.29293 21.78454 20.81797 21.28044 21.81162 20.09698 21.22538 21.80944 20.09698 
21.22756 21.75438 20.09698 21.28262 21.75656 20.09698 21.29293 21.78454 20.09698 
21.21507 21.78146 20.09698 21.25246 21.82193 20.09698 21.25554 21.74407 20.09698 
21.28928 22.79953 19.37600 21.23747 22.81828 19.37600 21.21872 22.76647 19.37600 
21.27053 22.74772 19.37600 21.28928 22.79953 20.81797 21.23747 22.81828 20.81797 
21.21872 22.76647 20.81797 21.27053 22.74772 20.81797 21.26725 22.81964 19.37600 
21.21736 22.79625 19.37600 21.24075 22.74636 19.37600 21.29064 22.76975 19.37600 
21.26725 22.81964 20.81797 21.21736 22.79625 20.81797 21.24075 22.74636 20.81797 
21.29064 22.76975 20.81797 21.28928 22.79953 20.09698 21.23747 22.81828 20.09698 
21.21872 22.76647 20.09698 21.27053 22.74772 20.09698 21.29064 22.76975 20.09698 
21.21736 22.79625 20.09698 21.26725 22.81964 20.09698 21.24075 22.74636 20.09698 
21.28176 23.81034 19.37600 21.22666 23.81076 19.37600 21.22624 23.75566 19.37600 
21.28134 23.75524 19.37600 21.28176 23.81034 22.31797 21.22666 23.81076 22.31797 
21.22624 23.75566 22.31797 21.28134 23.75524 22.31797 21.25429 23.82196 19.37600 
21.21504 23.78329 19.37600 21.25371 23.74404 19.37600 21.29296 23.78271 19.37600 
21.25429 23.82196 22.31797 21.21504 23.78329 22.31797 21.25371 23.74404 22.31797 
21.29296 23.78271 22.31797 21.28176 23.81034 20.84698 21.22666 23.81076 20.84698 
21.22624 23.75566 20.84698 21.28134 23.75524 20.84698 21.29296 23.78271 20.84698 
21.21504 23.78329 20.84698 21.25429 23.82196 20.84698 21.25371 23.74404 20.84698 
21.29042 20.79684 16.37600 21.24016 20.81942 16.37600 21.21758 20.76916 16.37600 
21.26784 20.74658 16.37600 21.29042 20.79684 17.81797 21.24016 20.81942 17.81797 
21.21758 20.76916 17.81797 21.26784 20.74658 17.81797 21.26997 20.81854 16.37600 
21.21846 20.79897 16.37600 21.23803 20.74746 16.37600 21.28954 20.76703 16.37600 
21.26997 20.81854 17.81797 21.21846 20.79897 17.81797 21.23803 20.74746 17.81797 
21.28954 20.76703 17.81797 21.29042 20.79684 17.09698 21.24016 20.81942 17.09698 
21.21758 20.76916 17.09698 21.26784 20.74658 17.09698 21.28954 20.76703 17.09698 
21.21846 20.79897 17.09698 21.26997 20.81854 17.09698 21.23803 20.74746 17.09698 
21.27182 23.31764 17.87600 21.21936 23.30082 17.87600 21.23618 23.24836 17.87600 
21.28864 23.26518 17.87600 21.27182 23.31764 19.31797 21.21936 23.30082 19.31797 
21.23618 23.24836 19.31797 21.28864 23.26518 19.31797 21.24210 23.32010 17.87600 
21.21690 23.27110 17.87600 21.26590 23.24590 17.87600 21.29110 23.29490 17.87600 
21.24210 23.32010 19.31797 21.21690 23.27110 19.31797 21.26590 23.24590 19.31797 
21.29110 23.29490 19.31797 21.27182 23.31764 18.59698 21.21936 23.30082 18.59698 
21.23618 23.24836 18.59698 21.28864 23.26518 18.59698 21.29110 23.29490 18.59698 
21.21690 23.27110 18.59698 21.24210 23.32010 18.59698 21.26590 23.24590 18.59698 
CELLS  10   250
24 0 1 2 3 4 5 6 7 8 9 10 11 12 13 14 15 16 17 18 19 20 21 22 23
24 24 25 26 27 28 29 30 31 32 33 34 35 36 37 38 39 40 41 42 43 44 45 46 47
24 48 49 50 51 52 53 54 55 56 57 58 59 60 61 62 63 64 65 66 67 68 69 70 71
24 72 73 74 75 76 77 78 79 80 81 82 83 84 85 86 87 88 89 90 91 92 93 94 95
24 96 97 98 99 100 101 102 103 104 105 106 107 108 109 110 111 112 113 114 115 116 117 118 119
24 120 121 122 123 124 125 126 127 128 129 130 131 132 133 134 135 136 137 138 139 140 141 142 143
24 144 145 146 147 148 149 150 151 152 153 154 155 156 157 158 159 160 161 162 163 164 165 166 167
24 168 169 170 171 172 173 174 175 176 177 178 179 180 181 182 183 184 185 186 187 188 189 190 191
24 192 193 194 195 196 197 198 199 200 201 202 203 204 205 206 207 208 209 210 211 212 213 214 215
24 216 217 218 219 220 221 222 223 224 225 226 227 228 229 230 231 232 233 234 235 236 237 238 239
CELL_TYPES  10 
33
33
33
33
33
33
33
33
33
33
CELL_DATA  10 
SCALARS average_vol_activity_bq_m3 double 1 
LOOKUP_TABLE default
99.20422
97.62953
87.21667
94.60693
90.25774
71.53386
82.88287
561.42083
82.88816
438.16091
SCALARS total_activity_bq double 1 
LOOKUP_TABLE default
0.34107
0.33566
0.59971
0.65053
0.62062
0.49188
0.56991
7.87617
0.56995
3.01285
SCALARS mc_error double 1 
LOOKUP_TABLE default
0.00000
0.00000
0.00000
0.00000
0.00000
0.00000
0.00000
0.00000
0.00138
0.00587
