/*--------------------------------*- C++ -*----------------------------------*\
  =========                 |
  \\      /  F ield         | OpenFOAM: The Open Source CFD Toolbox
   \\    /   O peration     | Website:  https://openfoam.org
    \\  /    A nd           | Version:  10
     \\/     M anipulation  |
\*---------------------------------------------------------------------------*/
FoamFile
{
    format      ascii;
    class       volScalarField;
    location    "29";
    object      Source;
}
// * * * * * * * * * * * * * * * * * * * * * * * * * * * * * * * * * * * * * //

dimensions      [0 0 -1 0 0 0 0];

internalField   uniform 0;

boundaryField
{
    face1
    {
        type            fixedValue;
        value           uniform 0;
    }
    face2
    {
        type            fixedValue;
        value           uniform 0;
    }
    face3
    {
        type            fixedValue;
        value           uniform 0;
    }
    face4
    {
        type            fixedValue;
        value           uniform 0;
    }
    face5
    {
        type            fixedValue;
        value           uniform 0;
    }
    face6
    {
        type            fixedValue;
        value           uniform 0;
    }
    face7
    {
        type            fixedValue;
        value           uniform 0;
    }
}


// ************************************************************************* //
