/*--------------------------------*- C++ -*----------------------------------*\
  =========                 |
  \\      /  F ield         | OpenFOAM: The Open Source CFD Toolbox
   \\    /   O peration     | Website:  https://openfoam.org
    \\  /    A nd           | Version:  10
     \\/     M anipulation  |
\*---------------------------------------------------------------------------*/
FoamFile
{
    format      ascii;
    class       volScalarField;
    location    "29";
    object      T;
}
// * * * * * * * * * * * * * * * * * * * * * * * * * * * * * * * * * * * * * //

dimensions      [0 0 0 0 0 0 0];

internalField   nonuniform List<scalar> 
111443
(
9.99976e+09
9.99971e+09
9.99912e+09
9.99938e+09
9.99956e+09
9.99921e+09
9.99879e+09
9.99892e+09
9.99949e+09
9.99973e+09
9.99916e+09
9.99955e+09
9.99909e+09
9.99963e+09
9.99811e+09
9.99894e+09
9.99854e+09
9.99824e+09
9.99928e+09
9.99885e+09
9.99936e+09
9.99959e+09
9.99915e+09
9.99826e+09
9.99955e+09
9.9991e+09
9.99814e+09
9.99953e+09
9.99952e+09
9.99764e+09
9.99789e+09
9.99843e+09
9.99923e+09
9.99894e+09
9.99818e+09
9.99787e+09
9.99983e+09
9.99881e+09
9.9995e+09
9.99853e+09
9.99976e+09
9.99912e+09
9.99959e+09
9.99915e+09
9.99825e+09
9.99784e+09
9.99775e+09
9.99954e+09
9.9991e+09
9.99814e+09
9.99953e+09
9.99773e+09
9.99914e+09
9.99986e+09
9.99917e+09
9.99796e+09
9.99738e+09
9.99713e+09
9.99863e+09
9.99853e+09
9.99967e+09
9.99835e+09
9.99908e+09
9.99753e+09
9.99736e+09
9.99976e+09
9.9981e+09
9.99931e+09
9.99911e+09
9.99789e+09
9.99881e+09
9.99965e+09
9.99911e+09
9.99955e+09
9.99838e+09
9.99959e+09
9.99916e+09
9.99823e+09
9.99784e+09
9.99774e+09
9.99709e+09
9.9967e+09
9.99952e+09
9.9991e+09
9.99811e+09
9.99953e+09
9.99775e+09
9.99914e+09
9.99685e+09
9.99827e+09
9.99959e+09
9.99984e+09
9.99956e+09
9.99805e+09
9.99754e+09
9.99693e+09
9.99695e+09
9.99669e+09
9.99664e+09
9.99878e+09
9.99775e+09
9.99893e+09
9.99966e+09
9.99785e+09
9.99838e+09
9.99729e+09
9.99745e+09
9.9998e+09
9.99772e+09
9.99817e+09
9.99958e+09
9.99891e+09
9.99843e+09
9.99976e+09
9.99789e+09
9.99927e+09
9.99819e+09
9.99925e+09
9.99911e+09
9.99955e+09
9.99837e+09
9.99912e+09
9.99785e+09
9.99957e+09
9.99914e+09
9.99808e+09
9.99781e+09
9.99772e+09
9.99708e+09
9.99668e+09
9.9971e+09
9.99637e+09
9.99622e+09
9.99949e+09
9.99907e+09
9.99794e+09
9.99951e+09
9.99774e+09
9.99915e+09
9.99687e+09
9.99828e+09
9.99959e+09
9.99612e+09
9.99782e+09
9.99972e+09
9.99913e+09
9.99772e+09
9.99741e+09
9.99696e+09
9.99628e+09
9.99667e+09
9.99712e+09
9.99672e+09
9.99627e+09
9.99655e+09
9.99859e+09
9.99786e+09
9.99867e+09
9.99793e+09
9.9988e+09
9.99695e+09
9.99708e+09
9.99935e+09
9.99764e+09
9.99726e+09
9.99783e+09
9.99966e+09
9.99873e+09
9.99909e+09
9.99797e+09
9.99975e+09
9.9974e+09
9.99769e+09
9.9989e+09
9.9979e+09
9.99972e+09
9.99911e+09
9.99955e+09
9.99836e+09
9.99912e+09
9.99785e+09
9.99959e+09
9.99824e+09
9.99955e+09
9.99889e+09
9.99749e+09
9.99763e+09
9.99758e+09
9.99704e+09
9.9966e+09
9.99709e+09
9.99635e+09
9.99622e+09
9.99643e+09
9.99554e+09
9.9953e+09
9.99878e+09
9.99729e+09
9.99949e+09
9.99766e+09
9.99916e+09
9.99675e+09
9.99825e+09
9.99958e+09
9.99612e+09
9.99782e+09
9.99912e+09
9.99531e+09
9.99624e+09
9.9983e+09
9.99702e+09
9.99933e+09
9.99952e+09
9.99799e+09
9.99701e+09
9.99667e+09
9.99634e+09
9.99658e+09
9.9959e+09
9.99619e+09
9.99668e+09
9.99626e+09
9.99577e+09
9.99613e+09
9.99818e+09
9.99767e+09
9.99838e+09
9.99817e+09
9.99734e+09
9.99891e+09
9.99646e+09
9.99661e+09
9.99935e+09
9.99793e+09
9.99672e+09
9.99659e+09
9.99817e+09
9.99918e+09
9.99916e+09
9.99892e+09
9.99916e+09
9.99886e+09
9.99742e+09
9.99776e+09
9.99934e+09
9.99733e+09
9.99828e+09
9.99896e+09
9.99935e+09
9.99908e+09
9.99954e+09
9.99825e+09
9.99912e+09
9.99783e+09
9.99959e+09
9.99824e+09
9.99919e+09
9.99778e+09
9.99953e+09
9.99641e+09
9.99689e+09
9.997e+09
9.99675e+09
9.996e+09
9.99706e+09
9.99627e+09
9.99617e+09
9.99642e+09
9.99552e+09
9.99529e+09
9.99668e+09
9.99554e+09
9.99545e+09
9.99464e+09
9.99524e+09
9.99445e+09
9.9949e+09
9.99603e+09
9.99946e+09
9.99718e+09
9.99913e+09
9.99611e+09
9.99808e+09
9.99957e+09
9.99597e+09
9.9978e+09
9.99912e+09
9.99529e+09
9.99624e+09
9.99829e+09
9.99703e+09
9.99952e+09
9.9954e+09
9.9948e+09
9.99543e+09
9.99781e+09
9.99658e+09
9.99968e+09
9.99903e+09
9.99762e+09
9.99675e+09
9.99611e+09
9.99674e+09
9.9959e+09
9.99608e+09
9.99645e+09
9.99622e+09
9.99579e+09
9.99594e+09
9.9957e+09
9.99776e+09
9.99882e+09
9.99787e+09
9.99788e+09
9.9989e+09
9.99778e+09
9.99729e+09
9.99824e+09
9.99666e+09
9.99593e+09
9.99602e+09
9.99671e+09
9.9998e+09
9.9977e+09
9.99822e+09
9.99676e+09
9.99537e+09
9.99597e+09
9.9996e+09
9.9988e+09
9.99956e+09
9.99826e+09
9.99934e+09
9.99972e+09
9.99882e+09
9.99869e+09
9.99824e+09
9.99731e+09
9.99968e+09
9.9984e+09
9.99926e+09
9.99966e+09
9.99879e+09
9.99951e+09
9.99776e+09
9.99913e+09
9.99768e+09
9.99958e+09
9.99823e+09
9.99919e+09
9.99778e+09
9.99831e+09
9.99956e+09
9.99447e+09
9.99481e+09
9.99538e+09
9.99368e+09
9.99674e+09
9.99576e+09
9.99581e+09
9.99639e+09
9.99545e+09
9.995e+09
9.99669e+09
9.99554e+09
9.99463e+09
9.99445e+09
9.99489e+09
9.99629e+09
9.99546e+09
9.99463e+09
9.99518e+09
9.99463e+09
9.9937e+09
9.99487e+09
9.99494e+09
9.99434e+09
9.99351e+09
9.99412e+09
9.99545e+09
9.9989e+09
9.99428e+09
9.99754e+09
9.99955e+09
9.99527e+09
9.99766e+09
9.99914e+09
9.995e+09
9.99613e+09
9.99827e+09
9.99697e+09
9.99952e+09
9.99478e+09
9.99544e+09
9.99782e+09
9.99663e+09
9.99902e+09
9.99492e+09
9.99539e+09
9.99485e+09
9.99419e+09
9.99544e+09
9.99529e+09
9.99814e+09
9.99704e+09
9.99646e+09
9.99584e+09
9.99927e+09
9.99952e+09
9.99715e+09
9.99536e+09
9.99665e+09
9.9968e+09
9.99538e+09
9.9958e+09
9.99661e+09
9.99596e+09
9.99582e+09
9.99538e+09
9.99518e+09
9.99726e+09
9.99823e+09
9.99899e+09
9.99774e+09
9.99816e+09
9.99743e+09
9.99909e+09
9.99702e+09
9.99784e+09
9.99634e+09
9.99584e+09
9.99606e+09
9.99663e+09
9.99978e+09
9.99789e+09
9.99786e+09
9.99783e+09
9.99668e+09
9.99667e+09
9.99541e+09
9.99534e+09
9.99525e+09
9.99402e+09
9.99926e+09
9.99884e+09
9.99963e+09
9.9982e+09
9.99892e+09
9.99919e+09
9.99818e+09
9.99932e+09
9.99806e+09
9.99786e+09
9.99709e+09
9.99872e+09
9.99949e+09
9.99683e+09
9.99911e+09
9.99711e+09
9.99957e+09
9.99808e+09
9.99918e+09
9.99776e+09
9.99831e+09
9.99956e+09
9.99783e+09
9.99903e+09
9.9909e+09
9.98836e+09
9.99537e+09
9.99365e+09
9.9942e+09
9.99606e+09
9.99497e+09
9.99353e+09
9.99661e+09
9.9954e+09
9.99437e+09
9.99422e+09
9.99466e+09
9.99629e+09
9.99464e+09
9.9937e+09
9.9935e+09
9.99409e+09
9.99707e+09
9.99566e+09
9.99486e+09
9.9944e+09
9.99473e+09
9.99375e+09
9.99469e+09
9.99441e+09
9.99369e+09
9.99279e+09
9.99443e+09
9.99452e+09
9.99406e+09
9.99354e+09
9.99333e+09
9.99266e+09
9.99401e+09
9.99375e+09
9.99139e+09
9.99663e+09
9.99953e+09
9.99346e+09
9.99719e+09
9.99913e+09
9.99367e+09
9.99552e+09
9.99812e+09
9.99648e+09
9.9995e+09
9.99449e+09
9.99529e+09
9.99781e+09
9.99658e+09
9.99902e+09
9.99485e+09
9.99415e+09
9.99534e+09
9.99813e+09
9.99706e+09
9.99591e+09
9.99952e+09
9.99493e+09
9.99456e+09
9.99491e+09
9.99411e+09
9.99412e+09
9.99381e+09
9.99546e+09
9.9952e+09
9.9944e+09
9.99777e+09
9.99682e+09
9.99656e+09
9.99599e+09
9.99557e+09
9.99538e+09
9.99974e+09
9.99968e+09
9.99912e+09
9.99695e+09
9.99536e+09
9.9947e+09
9.99532e+09
9.99669e+09
9.99599e+09
9.99668e+09
9.99662e+09
9.99542e+09
9.9953e+09
9.99403e+09
9.99612e+09
9.99737e+09
9.99783e+09
9.99841e+09
9.99796e+09
9.99793e+09
9.99811e+09
9.99756e+09
9.99865e+09
9.99674e+09
9.99738e+09
9.99585e+09
9.99548e+09
9.99577e+09
9.99615e+09
9.99921e+09
9.99821e+09
9.99806e+09
9.9974e+09
9.99807e+09
9.99609e+09
9.99663e+09
9.99744e+09
9.99667e+09
9.99606e+09
9.99691e+09
9.99534e+09
9.99534e+09
9.99406e+09
9.99532e+09
9.99472e+09
9.99465e+09
9.994e+09
9.99391e+09
9.99266e+09
9.99967e+09
9.99861e+09
9.99924e+09
9.99917e+09
9.99964e+09
9.99821e+09
9.9976e+09
9.9997e+09
9.99878e+09
9.99759e+09
9.99814e+09
9.99882e+09
9.99518e+09
9.99955e+09
9.9975e+09
9.9992e+09
9.99763e+09
9.99829e+09
9.99955e+09
9.99783e+09
9.99903e+09
9.9995e+09
9.99142e+09
9.98735e+09
9.98928e+09
9.99457e+09
9.99292e+09
9.98946e+09
9.99603e+09
9.99442e+09
9.99287e+09
9.99298e+09
9.99358e+09
9.9962e+09
9.99448e+09
9.99343e+09
9.99305e+09
9.99361e+09
9.99709e+09
9.99567e+09
9.99474e+09
9.99377e+09
9.99277e+09
9.9933e+09
9.99263e+09
9.99371e+09
9.99699e+09
9.99663e+09
9.99586e+09
9.99494e+09
9.99374e+09
9.99442e+09
9.99413e+09
9.99277e+09
9.99398e+09
9.99358e+09
9.99296e+09
9.99201e+09
9.99379e+09
9.99338e+09
9.99306e+09
9.9924e+09
9.99261e+09
9.99173e+09
9.99385e+09
9.99359e+09
9.99307e+09
9.98734e+09
9.99544e+09
9.99887e+09
9.98927e+09
9.99354e+09
9.9976e+09
9.99483e+09
9.99947e+09
9.99326e+09
9.99435e+09
9.99771e+09
9.9962e+09
9.99903e+09
9.99466e+09
9.99378e+09
9.99522e+09
9.99811e+09
9.99699e+09
9.99577e+09
9.99951e+09
9.9941e+09
9.99379e+09
9.99448e+09
9.99776e+09
9.99658e+09
9.99545e+09
9.99912e+09
9.99456e+09
9.99455e+09
9.99486e+09
9.99405e+09
9.99383e+09
9.99382e+09
9.99398e+09
9.99309e+09
9.99495e+09
9.99476e+09
9.99411e+09
9.99397e+09
9.99823e+09
9.99693e+09
9.99668e+09
9.99651e+09
9.99575e+09
9.99614e+09
9.9952e+09
9.99456e+09
9.99923e+09
9.99956e+09
9.9945e+09
9.99399e+09
9.99446e+09
9.99524e+09
9.99484e+09
9.99621e+09
9.99719e+09
9.99581e+09
9.99577e+09
9.99609e+09
9.99744e+09
9.99669e+09
9.99605e+09
9.99669e+09
9.99745e+09
9.99536e+09
9.99531e+09
9.99407e+09
9.99532e+09
9.9947e+09
9.99397e+09
9.99268e+09
9.99686e+09
9.99752e+09
9.99802e+09
9.99889e+09
9.99854e+09
9.99851e+09
9.99628e+09
9.99549e+09
9.99915e+09
9.9974e+09
9.99714e+09
9.99756e+09
9.99601e+09
9.99681e+09
9.99639e+09
9.99718e+09
9.99617e+09
9.99599e+09
9.9958e+09
9.99645e+09
9.99476e+09
9.99527e+09
9.99549e+09
9.99479e+09
9.99533e+09
9.99401e+09
9.99402e+09
9.9927e+09
9.99484e+09
9.99447e+09
9.994e+09
9.99338e+09
9.99402e+09
9.9933e+09
9.99267e+09
9.9926e+09
9.99132e+09
9.99928e+09
9.99851e+09
9.99923e+09
9.99822e+09
9.99741e+09
9.99717e+09
9.99932e+09
9.99877e+09
9.99785e+09
9.99952e+09
9.99643e+09
9.99919e+09
9.99712e+09
9.99813e+09
9.99954e+09
9.99782e+09
9.99903e+09
9.9995e+09
9.99907e+09
9.98972e+09
9.98562e+09
9.98337e+09
9.99374e+09
9.99108e+09
9.98804e+09
9.98934e+09
9.99033e+09
9.99557e+09
9.99343e+09
9.99185e+09
9.991e+09
9.9916e+09
9.99703e+09
9.99558e+09
9.99451e+09
9.99344e+09
9.99239e+09
9.99281e+09
9.99205e+09
9.99329e+09
9.99665e+09
9.99588e+09
9.99417e+09
9.99277e+09
9.99198e+09
9.99235e+09
9.99167e+09
9.99305e+09
9.99654e+09
9.99673e+09
9.99561e+09
9.99546e+09
9.99455e+09
9.99321e+09
9.99418e+09
9.99399e+09
9.99331e+09
9.99458e+09
9.99272e+09
9.99254e+09
9.99199e+09
9.99321e+09
9.99279e+09
9.99252e+09
9.99177e+09
9.99123e+09
9.9933e+09
9.99294e+09
9.99237e+09
9.99163e+09
9.99224e+09
9.99201e+09
9.99157e+09
9.99104e+09
9.99421e+09
9.99351e+09
9.99334e+09
9.99284e+09
9.97933e+09
9.98736e+09
9.99673e+09
9.99169e+09
9.99945e+09
9.98933e+09
9.99076e+09
9.99726e+09
9.9949e+09
9.999e+09
9.99364e+09
9.99219e+09
9.99441e+09
9.99794e+09
9.99651e+09
9.99489e+09
9.9995e+09
9.99387e+09
9.99354e+09
9.99424e+09
9.99775e+09
9.99654e+09
9.99535e+09
9.99912e+09
9.99387e+09
9.99306e+09
9.99408e+09
9.99823e+09
9.99693e+09
9.99578e+09
9.99464e+09
9.99956e+09
9.99452e+09
9.99382e+09
9.99295e+09
9.99343e+09
9.99355e+09
9.99291e+09
9.99257e+09
9.99471e+09
9.99408e+09
9.99372e+09
9.99299e+09
9.99829e+09
9.99777e+09
9.99644e+09
9.99599e+09
9.99553e+09
9.99522e+09
9.99578e+09
9.99536e+09
9.99419e+09
9.99396e+09
9.99967e+09
9.99914e+09
9.9934e+09
9.99397e+09
9.99508e+09
9.99465e+09
9.99611e+09
9.99715e+09
9.99576e+09
9.99592e+09
9.99733e+09
9.99709e+09
9.99627e+09
9.99617e+09
9.9971e+09
9.99771e+09
9.99474e+09
9.99542e+09
9.99469e+09
9.99542e+09
9.99401e+09
9.99398e+09
9.99271e+09
9.99484e+09
9.99466e+09
9.99448e+09
9.99403e+09
9.9934e+09
9.99384e+09
9.99265e+09
9.99266e+09
9.99134e+09
9.99642e+09
9.99854e+09
9.99859e+09
9.9961e+09
9.99495e+09
9.99975e+09
9.99888e+09
9.99729e+09
9.99702e+09
9.99796e+09
9.99564e+09
9.99736e+09
9.99638e+09
9.99659e+09
9.99588e+09
9.99621e+09
9.99597e+09
9.99577e+09
9.99648e+09
9.99477e+09
9.99535e+09
9.99501e+09
9.99487e+09
9.99338e+09
9.99394e+09
9.99396e+09
9.99336e+09
9.99402e+09
9.99264e+09
9.99265e+09
9.99135e+09
9.99353e+09
9.99315e+09
9.99354e+09
9.99314e+09
9.99265e+09
9.99276e+09
9.99211e+09
9.99268e+09
9.99198e+09
9.99237e+09
9.99134e+09
9.99128e+09
9.99e+09
9.99968e+09
9.99901e+09
9.99869e+09
9.99974e+09
9.9982e+09
9.99741e+09
9.99744e+09
9.99969e+09
9.99807e+09
9.99896e+09
9.99492e+09
9.99757e+09
9.99951e+09
9.99772e+09
9.99903e+09
9.9995e+09
9.99906e+09
9.99955e+09
9.99822e+09
9.98839e+09
9.98496e+09
9.97944e+09
9.98217e+09
9.98326e+09
9.99324e+09
9.98987e+09
9.98689e+09
9.98563e+09
9.98637e+09
9.99655e+09
9.99503e+09
9.9931e+09
9.9916e+09
9.9905e+09
9.99072e+09
9.98957e+09
9.99159e+09
9.99659e+09
9.99577e+09
9.994e+09
9.99209e+09
9.99144e+09
9.99179e+09
9.99094e+09
9.99263e+09
9.99674e+09
9.99548e+09
9.99334e+09
9.9946e+09
9.99257e+09
9.99197e+09
9.99117e+09
9.99155e+09
9.99219e+09
9.99098e+09
9.9959e+09
9.99532e+09
9.99325e+09
9.9937e+09
9.99347e+09
9.99433e+09
9.99298e+09
9.99286e+09
9.99422e+09
9.99244e+09
9.99213e+09
9.99162e+09
9.99176e+09
9.99121e+09
9.99212e+09
9.99139e+09
9.99107e+09
9.99054e+09
9.99311e+09
9.99227e+09
9.99184e+09
9.99147e+09
9.99074e+09
9.99156e+09
9.99192e+09
9.99102e+09
9.99023e+09
9.99371e+09
9.99275e+09
9.97857e+09
9.9815e+09
9.99574e+09
9.99155e+09
9.99865e+09
9.98995e+09
9.98655e+09
9.9917e+09
9.99728e+09
9.99501e+09
9.99217e+09
9.99947e+09
9.99243e+09
9.99225e+09
9.9928e+09
9.99765e+09
9.99617e+09
9.99459e+09
9.99913e+09
9.99366e+09
9.99271e+09
9.99386e+09
9.99821e+09
9.99684e+09
9.99561e+09
9.99435e+09
9.99955e+09
9.993e+09
9.99259e+09
9.9931e+09
9.99778e+09
9.99645e+09
9.99526e+09
9.99405e+09
9.99913e+09
9.99336e+09
9.99281e+09
9.99246e+09
9.99251e+09
9.99176e+09
9.99349e+09
9.99322e+09
9.99264e+09
9.99254e+09
9.99782e+09
9.99823e+09
9.99689e+09
9.99555e+09
9.99593e+09
9.99508e+09
9.99434e+09
9.99406e+09
9.99374e+09
9.99306e+09
9.99929e+09
9.99955e+09
9.99314e+09
9.99347e+09
9.99439e+09
9.99665e+09
9.99593e+09
9.99728e+09
9.9953e+09
9.99587e+09
9.99795e+09
9.99671e+09
9.99728e+09
9.99633e+09
9.99592e+09
9.99612e+09
9.99746e+09
9.99665e+09
9.99729e+09
9.99823e+09
9.99442e+09
9.99488e+09
9.99447e+09
9.99463e+09
9.995e+09
9.9934e+09
9.99399e+09
9.99341e+09
9.99411e+09
9.99268e+09
9.99267e+09
9.99136e+09
9.99481e+09
9.99458e+09
9.99447e+09
9.99354e+09
9.99336e+09
9.99374e+09
9.99269e+09
9.99203e+09
9.99263e+09
9.99208e+09
9.9926e+09
9.9913e+09
9.99132e+09
9.99e+09
9.99864e+09
9.99865e+09
9.99483e+09
9.99813e+09
9.99695e+09
9.99779e+09
9.99707e+09
9.99741e+09
9.99661e+09
9.9958e+09
9.99655e+09
9.99593e+09
9.99591e+09
9.99563e+09
9.99583e+09
9.99561e+09
9.99647e+09
9.99439e+09
9.99473e+09
9.99453e+09
9.99512e+09
9.99511e+09
9.993e+09
9.99341e+09
9.99353e+09
9.99314e+09
9.99316e+09
9.99352e+09
9.99197e+09
9.99256e+09
9.99269e+09
9.99268e+09
9.99205e+09
9.9913e+09
9.99133e+09
9.99002e+09
9.99219e+09
9.99217e+09
9.9922e+09
9.99181e+09
9.99079e+09
9.99135e+09
9.9915e+09
9.99134e+09
9.99068e+09
9.99143e+09
9.99002e+09
9.98997e+09
9.98869e+09
9.99968e+09
9.99924e+09
9.9993e+09
9.99819e+09
9.99966e+09
9.99933e+09
9.99805e+09
9.99737e+09
9.99744e+09
9.9966e+09
9.99949e+09
9.99727e+09
9.99898e+09
9.99948e+09
9.99906e+09
9.99955e+09
9.99822e+09
9.99908e+09
9.99784e+09
9.9876e+09
9.98221e+09
9.97691e+09
9.97705e+09
9.97857e+09
9.99483e+09
9.99282e+09
9.9885e+09
9.98636e+09
9.98505e+09
9.98547e+09
9.98319e+09
9.98661e+09
9.99619e+09
9.99507e+09
9.99284e+09
9.98898e+09
9.98901e+09
9.98958e+09
9.98819e+09
9.9909e+09
9.99669e+09
9.99542e+09
9.99283e+09
9.99432e+09
9.99206e+09
9.99129e+09
9.99045e+09
9.99077e+09
9.99151e+09
9.9902e+09
9.9959e+09
9.99292e+09
9.99425e+09
9.99162e+09
9.99117e+09
9.99045e+09
9.99062e+09
9.99154e+09
9.9901e+09
9.99582e+09
9.99285e+09
9.99297e+09
9.99409e+09
9.99267e+09
9.99333e+09
9.99205e+09
9.99484e+09
9.992e+09
9.99148e+09
9.99141e+09
9.99098e+09
9.99121e+09
9.99053e+09
9.99091e+09
9.991e+09
9.99056e+09
9.98979e+09
9.99198e+09
9.99168e+09
9.99083e+09
9.99042e+09
9.99076e+09
9.99008e+09
9.99152e+09
9.9906e+09
9.99012e+09
9.98956e+09
9.99229e+09
9.97892e+09
9.97296e+09
9.98512e+09
9.99608e+09
9.99247e+09
9.98757e+09
9.99944e+09
9.98685e+09
9.9875e+09
9.98834e+09
9.99716e+09
9.99489e+09
9.99234e+09
9.99911e+09
9.99238e+09
9.99088e+09
9.99254e+09
9.99802e+09
9.99628e+09
9.99463e+09
9.99284e+09
9.99954e+09
9.9926e+09
9.99231e+09
9.99261e+09
9.99777e+09
9.9964e+09
9.99515e+09
9.99381e+09
9.99913e+09
9.99258e+09
9.99175e+09
9.99265e+09
9.99823e+09
9.99691e+09
9.99557e+09
9.99438e+09
9.99311e+09
9.99955e+09
9.99317e+09
9.99265e+09
9.99215e+09
9.99156e+09
9.99207e+09
9.99159e+09
9.99125e+09
9.9933e+09
9.99266e+09
9.99237e+09
9.99168e+09
9.99782e+09
9.99673e+09
9.99606e+09
9.9954e+09
9.99497e+09
9.99408e+09
9.99381e+09
9.99325e+09
9.99274e+09
9.99252e+09
9.99906e+09
9.99634e+09
9.99558e+09
9.99496e+09
9.99568e+09
9.99777e+09
9.99655e+09
9.99678e+09
9.99624e+09
9.99585e+09
9.99584e+09
9.99731e+09
9.99806e+09
9.99672e+09
9.9964e+09
9.99685e+09
9.99781e+09
9.99775e+09
9.99427e+09
9.99501e+09
9.99456e+09
9.99439e+09
9.99458e+09
9.99501e+09
9.99317e+09
9.99341e+09
9.99404e+09
9.99326e+09
9.9937e+09
9.99272e+09
9.99209e+09
9.99206e+09
9.99277e+09
9.99131e+09
9.99132e+09
9.99002e+09
9.99456e+09
9.99401e+09
9.99353e+09
9.99311e+09
9.99222e+09
9.99199e+09
9.99184e+09
9.99238e+09
9.99205e+09
9.9924e+09
9.99135e+09
9.99068e+09
9.99123e+09
9.99073e+09
9.99136e+09
9.98997e+09
9.99e+09
9.98867e+09
9.99937e+09
9.99809e+09
9.9968e+09
9.99714e+09
9.99752e+09
9.9973e+09
9.99635e+09
9.9963e+09
9.99656e+09
9.99574e+09
9.99634e+09
9.99558e+09
9.99582e+09
9.99649e+09
9.99435e+09
9.99472e+09
9.99511e+09
9.99486e+09
9.99311e+09
9.99345e+09
9.99365e+09
9.99311e+09
9.99308e+09
9.99349e+09
9.99161e+09
9.99181e+09
9.99201e+09
9.99267e+09
9.99226e+09
9.99219e+09
9.99186e+09
9.9907e+09
9.99119e+09
9.99078e+09
9.99136e+09
9.9914e+09
9.98999e+09
9.99002e+09
9.98869e+09
9.99232e+09
9.99087e+09
9.99088e+09
9.99051e+09
9.99058e+09
9.98941e+09
9.99004e+09
9.99005e+09
9.98938e+09
9.99003e+09
9.9901e+09
9.98868e+09
9.98867e+09
9.98737e+09
9.99952e+09
9.99973e+09
9.99909e+09
9.99831e+09
9.99971e+09
9.99749e+09
9.9971e+09
9.9974e+09
9.99548e+09
9.99865e+09
9.99946e+09
9.99908e+09
9.99955e+09
9.9982e+09
9.99907e+09
9.99785e+09
9.99144e+09
9.98599e+09
9.97994e+09
9.97761e+09
9.97186e+09
9.97599e+09
9.96924e+09
9.97607e+09
9.99467e+09
9.9924e+09
9.98901e+09
9.98078e+09
9.98213e+09
9.98409e+09
9.98146e+09
9.98572e+09
9.99631e+09
9.99494e+09
9.9904e+09
9.99269e+09
9.98965e+09
9.98837e+09
9.98762e+09
9.98795e+09
9.98884e+09
9.98743e+09
9.9958e+09
9.99254e+09
9.99409e+09
9.99086e+09
9.99026e+09
9.9895e+09
9.9896e+09
9.99095e+09
9.98899e+09
9.99582e+09
9.99334e+09
9.99206e+09
9.99485e+09
9.99145e+09
9.99098e+09
9.99046e+09
9.98965e+09
9.99067e+09
9.98997e+09
9.98941e+09
9.99208e+09
9.993e+09
9.99154e+09
9.99447e+09
9.99096e+09
9.99146e+09
9.99125e+09
9.99057e+09
9.99014e+09
9.99073e+09
9.99038e+09
9.98987e+09
9.99047e+09
9.99011e+09
9.98962e+09
9.98895e+09
9.99112e+09
9.99068e+09
9.99032e+09
9.98997e+09
9.99056e+09
9.99013e+09
9.98924e+09
9.99104e+09
9.98959e+09
9.9889e+09
9.97266e+09
9.9752e+09
9.97992e+09
9.99553e+09
9.99197e+09
9.98798e+09
9.99885e+09
9.98807e+09
9.98454e+09
9.98895e+09
9.99744e+09
9.9946e+09
9.99196e+09
9.98897e+09
9.99952e+09
9.99036e+09
9.9907e+09
9.99032e+09
9.99766e+09
9.99597e+09
9.99436e+09
9.99246e+09
9.99915e+09
9.99223e+09
9.99115e+09
9.99227e+09
9.99821e+09
9.99682e+09
9.99539e+09
9.99403e+09
9.99255e+09
9.99955e+09
9.99168e+09
9.99131e+09
9.99174e+09
9.99781e+09
9.99612e+09
9.99502e+09
9.99386e+09
9.99261e+09
9.99905e+09
9.99208e+09
9.99128e+09
9.99117e+09
9.99118e+09
9.9904e+09
9.99187e+09
9.99138e+09
9.99127e+09
9.99716e+09
9.99833e+09
9.99569e+09
9.99524e+09
9.99628e+09
9.99416e+09
9.99373e+09
9.99293e+09
9.9933e+09
9.99238e+09
9.99171e+09
9.99956e+09
9.9952e+09
9.99586e+09
9.99597e+09
9.99602e+09
9.9954e+09
9.99626e+09
9.99534e+09
9.99778e+09
9.99834e+09
9.99687e+09
9.99659e+09
9.9972e+09
9.99793e+09
9.9982e+09
9.99385e+09
9.99466e+09
9.99479e+09
9.9945e+09
9.99395e+09
9.99445e+09
9.99403e+09
9.99482e+09
9.99316e+09
9.99322e+09
9.99338e+09
9.99357e+09
9.99317e+09
9.99246e+09
9.99194e+09
9.99183e+09
9.99226e+09
9.99066e+09
9.99128e+09
9.9907e+09
9.9913e+09
9.98998e+09
9.98999e+09
9.98868e+09
9.99401e+09
9.99219e+09
9.99168e+09
9.99181e+09
9.99171e+09
9.99085e+09
9.99047e+09
9.99066e+09
9.99108e+09
9.99055e+09
9.99089e+09
9.98999e+09
9.98938e+09
9.99007e+09
9.9894e+09
9.99011e+09
9.98867e+09
9.98868e+09
9.98735e+09
9.99916e+09
9.99686e+09
9.99715e+09
9.99742e+09
9.99658e+09
9.99747e+09
9.99604e+09
9.99646e+09
9.99527e+09
9.99622e+09
9.99572e+09
9.99583e+09
9.99509e+09
9.99642e+09
9.99444e+09
9.99467e+09
9.99455e+09
9.99343e+09
9.99354e+09
9.9932e+09
9.99266e+09
9.99244e+09
9.99326e+09
9.99159e+09
9.99187e+09
9.99163e+09
9.99208e+09
9.99179e+09
9.99217e+09
9.99183e+09
9.9905e+09
9.99067e+09
9.99121e+09
9.99089e+09
9.99093e+09
9.9913e+09
9.98942e+09
9.98992e+09
9.99004e+09
9.9894e+09
9.98998e+09
9.98869e+09
9.98868e+09
9.98736e+09
9.99091e+09
9.98948e+09
9.9892e+09
9.98956e+09
9.9892e+09
9.98923e+09
9.98957e+09
9.98963e+09
9.98809e+09
9.98873e+09
9.98853e+09
9.9881e+09
9.98873e+09
9.98845e+09
9.98738e+09
9.98735e+09
9.98606e+09
9.99951e+09
9.99959e+09
9.99909e+09
9.99831e+09
9.99647e+09
9.99615e+09
9.9971e+09
9.99943e+09
9.99905e+09
9.99953e+09
9.99801e+09
9.99907e+09
9.99783e+09
9.99027e+09
9.98575e+09
9.98146e+09
9.96729e+09
9.96671e+09
9.97236e+09
9.96602e+09
9.97391e+09
9.99458e+09
9.99253e+09
9.98442e+09
9.9879e+09
9.98383e+09
9.98094e+09
9.97987e+09
9.98088e+09
9.9813e+09
9.98102e+09
9.995e+09
9.99057e+09
9.99295e+09
9.98773e+09
9.98671e+09
9.98599e+09
9.98619e+09
9.98845e+09
9.9855e+09
9.99575e+09
9.99279e+09
9.99122e+09
9.99459e+09
9.99074e+09
9.99023e+09
9.98949e+09
9.98845e+09
9.98971e+09
9.98898e+09
9.98816e+09
9.99301e+09
9.99154e+09
9.99449e+09
9.99053e+09
9.99009e+09
9.98978e+09
9.98874e+09
9.99012e+09
9.98897e+09
9.98864e+09
9.99205e+09
9.99061e+09
9.99059e+09
9.99069e+09
9.99026e+09
9.98994e+09
9.99012e+09
9.99005e+09
9.9896e+09
9.98986e+09
9.98899e+09
9.9893e+09
9.98873e+09
9.98816e+09
9.98972e+09
9.9894e+09
9.99008e+09
9.98928e+09
9.98901e+09
9.98873e+09
9.9888e+09
9.99076e+09
9.98921e+09
9.98873e+09
9.98813e+09
9.97722e+09
9.97143e+09
9.98144e+09
9.99647e+09
9.99182e+09
9.98803e+09
9.98332e+09
9.99949e+09
9.98356e+09
9.98532e+09
9.9843e+09
9.99719e+09
9.99458e+09
9.99199e+09
9.98904e+09
9.99913e+09
9.99028e+09
9.98821e+09
9.99037e+09
9.99804e+09
9.99624e+09
9.99432e+09
9.99232e+09
9.99016e+09
9.99953e+09
9.991e+09
9.99081e+09
9.99091e+09
9.99778e+09
9.99604e+09
9.99487e+09
9.99364e+09
9.99224e+09
9.99905e+09
9.99131e+09
9.9904e+09
9.99136e+09
9.99717e+09
9.99833e+09
9.99531e+09
9.99631e+09
9.9942e+09
9.99297e+09
9.99173e+09
9.99956e+09
9.99172e+09
9.99094e+09
9.99133e+09
9.99035e+09
9.99024e+09
9.98992e+09
9.99187e+09
9.99127e+09
9.99103e+09
9.9905e+09
9.99446e+09
9.99549e+09
9.99389e+09
9.99276e+09
9.99244e+09
9.99139e+09
9.99125e+09
9.99549e+09
9.99558e+09
9.99511e+09
9.99631e+09
9.99489e+09
9.99545e+09
9.9978e+09
9.99834e+09
9.99689e+09
9.99661e+09
9.99566e+09
9.9972e+09
9.99792e+09
9.99821e+09
9.99459e+09
9.99381e+09
9.99397e+09
9.99365e+09
9.99395e+09
9.99362e+09
9.99415e+09
9.99269e+09
9.99271e+09
9.99285e+09
9.99265e+09
9.99193e+09
9.99196e+09
9.99168e+09
9.99179e+09
9.99213e+09
9.99181e+09
9.99053e+09
9.99093e+09
9.99051e+09
9.99082e+09
9.9901e+09
9.9894e+09
9.98943e+09
9.98991e+09
9.98869e+09
9.98868e+09
9.98735e+09
9.99136e+09
9.99088e+09
9.99045e+09
9.99053e+09
9.99045e+09
9.99068e+09
9.99055e+09
9.99084e+09
9.98954e+09
9.98918e+09
9.98959e+09
9.9892e+09
9.98956e+09
9.98871e+09
9.98806e+09
9.98875e+09
9.9881e+09
9.98866e+09
9.98736e+09
9.98738e+09
9.98603e+09
9.99915e+09
9.99685e+09
9.99712e+09
9.9974e+09
9.99659e+09
9.99746e+09
9.99606e+09
9.99586e+09
9.99527e+09
9.9962e+09
9.99572e+09
9.99497e+09
9.99575e+09
9.99512e+09
9.99466e+09
9.99589e+09
9.99395e+09
9.99474e+09
9.99336e+09
9.99355e+09
9.99366e+09
9.99283e+09
9.99246e+09
9.99272e+09
9.9923e+09
9.99252e+09
9.99174e+09
9.99201e+09
9.99147e+09
9.99054e+09
9.99034e+09
9.99061e+09
9.9909e+09
9.99096e+09
9.99048e+09
9.99071e+09
9.98941e+09
9.98986e+09
9.98957e+09
9.98919e+09
9.98946e+09
9.98812e+09
9.98868e+09
9.9887e+09
9.98808e+09
9.98871e+09
9.98738e+09
9.98737e+09
9.98605e+09
9.98943e+09
9.98917e+09
9.98956e+09
9.98928e+09
9.98883e+09
9.98789e+09
9.98817e+09
9.98827e+09
9.98894e+09
9.98825e+09
9.98809e+09
9.98681e+09
9.98741e+09
9.98755e+09
9.98741e+09
9.98674e+09
9.9875e+09
9.98609e+09
9.98605e+09
9.98474e+09
9.99951e+09
9.99958e+09
9.99908e+09
9.99829e+09
9.99246e+09
9.996e+09
9.99876e+09
9.99951e+09
9.99739e+09
9.99909e+09
9.99765e+09
9.98943e+09
9.98525e+09
9.97661e+09
9.9807e+09
9.97374e+09
9.96588e+09
9.96181e+09
9.96729e+09
9.96733e+09
9.96334e+09
9.99139e+09
9.98577e+09
9.9891e+09
9.98041e+09
9.97801e+09
9.97681e+09
9.97801e+09
9.98164e+09
9.97702e+09
9.99525e+09
9.99025e+09
9.98806e+09
9.99304e+09
9.98788e+09
9.98719e+09
9.98601e+09
9.98455e+09
9.98621e+09
9.98592e+09
9.98459e+09
9.99264e+09
9.99089e+09
9.99433e+09
9.98933e+09
9.98899e+09
9.98851e+09
9.98716e+09
9.9894e+09
9.98734e+09
9.98696e+09
9.99201e+09
9.99051e+09
9.98993e+09
9.9901e+09
9.98956e+09
9.98873e+09
9.98791e+09
9.98912e+09
9.98851e+09
9.98866e+09
9.98772e+09
9.99016e+09
9.98981e+09
9.99e+09
9.98914e+09
9.98927e+09
9.99005e+09
9.98959e+09
9.98876e+09
9.98888e+09
9.98841e+09
9.98858e+09
9.9881e+09
9.98728e+09
9.9896e+09
9.98909e+09
9.98875e+09
9.98859e+09
9.98866e+09
9.98795e+09
9.98793e+09
9.98861e+09
9.98809e+09
9.98765e+09
9.97121e+09
9.97331e+09
9.97427e+09
9.99551e+09
9.99118e+09
9.98735e+09
9.98305e+09
9.99887e+09
9.98495e+09
9.98023e+09
9.98576e+09
9.99747e+09
9.99443e+09
9.99122e+09
9.9881e+09
9.98472e+09
9.99951e+09
9.98789e+09
9.98826e+09
9.98774e+09
9.99761e+09
9.99548e+09
9.99398e+09
9.99234e+09
9.99035e+09
9.99906e+09
9.99079e+09
9.98948e+09
9.99074e+09
9.99714e+09
9.99832e+09
9.99516e+09
9.99625e+09
9.99396e+09
9.99246e+09
9.99081e+09
9.99956e+09
9.99043e+09
9.99e+09
9.99049e+09
9.99451e+09
9.99552e+09
9.99394e+09
9.9925e+09
9.99131e+09
9.99055e+09
9.99004e+09
9.98996e+09
9.98985e+09
9.98912e+09
9.99006e+09
9.9901e+09
9.99302e+09
9.9924e+09
9.99161e+09
9.99116e+09
9.99054e+09
9.99509e+09
9.99632e+09
9.99492e+09
9.99546e+09
9.99777e+09
9.99832e+09
9.99684e+09
9.99656e+09
9.99568e+09
9.99717e+09
9.9979e+09
9.9982e+09
9.99462e+09
9.99377e+09
9.99395e+09
9.99362e+09
9.99407e+09
9.99352e+09
9.99404e+09
9.9929e+09
9.99227e+09
9.99264e+09
9.99202e+09
9.99147e+09
9.99109e+09
9.99135e+09
9.99184e+09
9.99174e+09
9.99041e+09
9.99041e+09
9.99049e+09
9.99075e+09
9.99035e+09
9.98998e+09
9.9895e+09
9.98946e+09
9.98813e+09
9.98898e+09
9.98808e+09
9.98894e+09
9.98739e+09
9.98737e+09
9.98604e+09
9.99067e+09
9.99011e+09
9.99006e+09
9.99006e+09
9.98963e+09
9.98925e+09
9.98924e+09
9.98961e+09
9.98918e+09
9.98951e+09
9.98825e+09
9.98789e+09
9.9879e+09
9.98824e+09
9.98788e+09
9.98812e+09
9.98851e+09
9.98742e+09
9.98677e+09
9.98745e+09
9.9868e+09
9.9875e+09
9.98606e+09
9.98607e+09
9.98473e+09
9.99915e+09
9.99679e+09
9.99682e+09
9.99735e+09
9.99657e+09
9.99743e+09
9.99604e+09
9.99348e+09
9.99526e+09
9.99612e+09
9.99562e+09
9.99496e+09
9.99524e+09
9.99495e+09
9.99467e+09
9.99398e+09
9.99371e+09
9.99471e+09
9.99338e+09
9.99313e+09
9.99361e+09
9.99295e+09
9.99246e+09
9.99283e+09
9.99228e+09
9.99253e+09
9.99174e+09
9.99074e+09
9.99157e+09
9.99163e+09
9.99025e+09
9.99082e+09
9.9905e+09
9.98946e+09
9.98923e+09
9.98944e+09
9.98964e+09
9.98927e+09
9.98948e+09
9.98925e+09
9.98816e+09
9.9886e+09
9.98823e+09
9.98787e+09
9.98819e+09
9.98859e+09
9.9868e+09
9.98738e+09
9.98738e+09
9.9874e+09
9.98678e+09
9.98606e+09
9.98607e+09
9.98473e+09
9.98921e+09
9.98879e+09
9.98938e+09
9.98893e+09
9.98795e+09
9.98819e+09
9.98835e+09
9.98838e+09
9.98821e+09
9.98659e+09
9.98694e+09
9.98695e+09
9.98749e+09
9.98696e+09
9.98658e+09
9.9866e+09
9.98744e+09
9.98546e+09
9.98612e+09
9.98578e+09
9.98552e+09
9.98611e+09
9.98611e+09
9.98475e+09
9.98475e+09
9.98342e+09
9.9995e+09
9.99958e+09
9.99906e+09
9.99815e+09
9.99181e+09
9.99949e+09
9.99635e+09
9.99906e+09
9.99711e+09
9.98209e+09
9.97848e+09
9.98139e+09
9.96825e+09
9.96084e+09
9.95654e+09
9.96171e+09
9.96917e+09
9.95807e+09
9.99303e+09
9.98422e+09
9.98161e+09
9.98783e+09
9.98198e+09
9.98027e+09
9.97795e+09
9.97526e+09
9.97753e+09
9.97922e+09
9.9767e+09
9.99069e+09
9.98826e+09
9.99323e+09
9.98541e+09
9.98514e+09
9.9843e+09
9.98271e+09
9.98654e+09
9.98268e+09
9.98231e+09
9.99126e+09
9.98933e+09
9.9889e+09
9.98911e+09
9.98849e+09
9.98683e+09
9.98611e+09
9.98769e+09
9.98701e+09
9.9874e+09
9.9855e+09
9.99013e+09
9.98902e+09
9.98907e+09
9.98859e+09
9.98827e+09
9.98672e+09
9.98874e+09
9.98754e+09
9.98762e+09
9.9873e+09
9.98928e+09
9.98887e+09
9.98881e+09
9.98853e+09
9.98902e+09
9.98882e+09
9.98865e+09
9.98841e+09
9.98761e+09
9.98779e+09
9.9873e+09
9.98659e+09
9.98699e+09
9.98939e+09
9.98864e+09
9.988e+09
9.98817e+09
9.9882e+09
9.98768e+09
9.98753e+09
9.98771e+09
9.98757e+09
9.9879e+09
9.98756e+09
9.98679e+09
9.97433e+09
9.96814e+09
9.97724e+09
9.99649e+09
9.99128e+09
9.98616e+09
9.98229e+09
9.97714e+09
9.99948e+09
9.98021e+09
9.98172e+09
9.98093e+09
9.99695e+09
9.99366e+09
9.99112e+09
9.98856e+09
9.98571e+09
9.99902e+09
9.98833e+09
9.98571e+09
9.98818e+09
9.9969e+09
9.99821e+09
9.99413e+09
9.99572e+09
9.99247e+09
9.99008e+09
9.98746e+09
9.99955e+09
9.98935e+09
9.98929e+09
9.98929e+09
9.99433e+09
9.99543e+09
9.99377e+09
9.9922e+09
9.99072e+09
9.99008e+09
9.98908e+09
9.99016e+09
9.99307e+09
9.99164e+09
9.9905e+09
9.98971e+09
9.98918e+09
9.9889e+09
9.9887e+09
9.98979e+09
9.98937e+09
9.99086e+09
9.99026e+09
9.98998e+09
9.99511e+09
9.99626e+09
9.99493e+09
9.99533e+09
9.9976e+09
9.99819e+09
9.99645e+09
9.99619e+09
9.99557e+09
9.99689e+09
9.99777e+09
9.99808e+09
9.99444e+09
9.99379e+09
9.99394e+09
9.99362e+09
9.99408e+09
9.99353e+09
9.99405e+09
9.99294e+09
9.99225e+09
9.99263e+09
9.99189e+09
9.99204e+09
9.99113e+09
9.99086e+09
9.99136e+09
9.99119e+09
9.99117e+09
9.98998e+09
9.99033e+09
9.99012e+09