/*--------------------------------*- C++ -*----------------------------------*\
  =========                 |
  \\      /  F ield         | OpenFOAM: The Open Source CFD Toolbox
   \\    /   O peration     | Website:  https://openfoam.org
    \\  /    A nd           | Version:  10
     \\/     M anipulation  |
\*---------------------------------------------------------------------------*/
FoamFile
{
    format      ascii;
    class       volScalarField;
    location    "29";
    object      Tr;
}
// * * * * * * * * * * * * * * * * * * * * * * * * * * * * * * * * * * * * * //

dimensions      [0 0 0 0 0 0 0];

internalField   nonuniform List<scalar> 
111443
(
0.000145282
0.000174051
0.000526736
0.000371057
0.000266002
0.000478399
0.000727924
0.000652914
0.000309386
0.000165121
0.000503086
0.000268512
0.000546753
0.000221256
0.0011348
0.00064014
0.000879092
0.00106008
0.000433193
0.000690072
0.000386025
0.000244392
0.000510922
0.00104796
0.000269734
0.000543481
0.00111862
0.000280429
0.000290266
0.00142201
0.00126803
0.000942867
0.000462739
0.000639336
0.00109724
0.00128464
0.000100471
0.000715068
0.000301355
0.000882787
0.000143661
0.000526877
0.000246807
0.000512127
0.00105134
0.00129736
0.00135199
0.000277549
0.000543474
0.00112169
0.000281872
0.00136321
0.000514711
8.2091e-05
0.000497707
0.00122729
0.00157443
0.00172927
0.000826133
0.000885186
0.000198679
0.000993362
0.000552308
0.00148554
0.00158687
0.000147348
0.00114193
0.000418237
0.000538247
0.00127279
0.000714736
0.00020899
0.000533466
0.00026788
0.000977225
0.000248835
0.000505092
0.00106276
0.00130222
0.00136002
0.0017512
0.00198564
0.000291056
0.000538853
0.00113498
0.000282587
0.00135596
0.000514877
0.00189684
0.00103948
0.000245593
9.4426e-05
0.0002665
0.00117569
0.00147796
0.00184989
0.00183415
0.00199342
0.00202054
0.000733457
0.00135528
0.000646605
0.000205656
0.00129228
0.000975287
0.00163196
0.0015358
0.000117665
0.00137214
0.00110104
0.000255544
0.00065422
0.000944844
0.000143153
0.00127079
0.000438437
0.00108865
0.000453695
0.000535402
0.000268707
0.000981923
0.000529047
0.00129192
0.000256545
0.000517448
0.00115621
0.00131645
0.00137212
0.0017594
0.00199689
0.00174417
0.00218379
0.00227416
0.000305646
0.000560355
0.00123709
0.00029245
0.00135773
0.000513036
0.00188618
0.00103721
0.000249325
0.00233328
0.00131128
0.000168428
0.000521371
0.00137237
0.00155743
0.00182743
0.00224037
0.00200622
0.00173114
0.00197507
0.00224455
0.0020766
0.000847957
0.00128819
0.000803186
0.00124625
0.00072199
0.0018351
0.00175726
0.000393762
0.00142004
0.00164812
0.00130831
0.000207057
0.000762842
0.000550556
0.00122407
0.000148084
0.00156755
0.0013893
0.000662116
0.00126352
0.000167064
0.000533425
0.000269267
0.0009873
0.000529316
0.00129396
0.000246287
0.00105948
0.000269055
0.000666515
0.00150852
0.00142835
0.00145366
0.00178138
0.00204713
0.0017486
0.00219753
0.00227536
0.00214939
0.00268431
0.00282756
0.000731595
0.00162856
0.00030644
0.00140712
0.000504778
0.00195791
0.00105086
0.000251426
0.00233285
0.00131359
0.000529117
0.00282388
0.00226404
0.00102526
0.00179478
0.000402551
0.000289437
0.00120709
0.00180069
0.00200143
0.00220208
0.00205988
0.0024705
0.00229056
0.00199947
0.00225004
0.00254631
0.00232963
0.00109811
0.00140472
0.000975821
0.00110166
0.00160186
0.000655186
0.00213218
0.00203956
0.000392939
0.00124619
0.00197335
0.0020547
0.00110024
0.000493629
0.000505484
0.000652274
0.000503343
0.00068773
0.00155391
0.0013502
0.000396723
0.00160712
0.00103406
0.000627156
0.000390331
0.000556021
0.000277815
0.00105598
0.000531407
0.00130459
0.000246437
0.00105722
0.000484427
0.00133822
0.00028236
0.00215879
0.00187353
0.00180467
0.0019561
0.00240572
0.00177183
0.00224366
0.00230283
0.00215165
0.00269403
0.0028318
0.00199788
0.00268227
0.00274016
0.00322631
0.00286471
0.00334062
0.0030692
0.00238997
0.000322487
0.00169552
0.000520499
0.00234334
0.001153
0.000258433
0.00242433
0.00132571
0.000527447
0.0028338
0.00226236
0.00102916
0.00178579
0.000289291
0.00276937
0.00312804
0.00275083
0.0013155
0.00205603
0.000193383
0.000584602
0.00143433
0.00195507
0.0023394
0.00196371
0.00246833
0.00235956
0.00213554
0.00227347
0.00253373
0.00244335
0.00259023
0.0013464
0.000712335
0.00128228
0.0012736
0.000662678
0.00133568
0.00162906
0.00106204
0.00201164
0.00245133
0.00239684
0.00197867
0.000121515
0.00138374
0.00107011
0.00194746
0.00278564
0.00242568
0.000242096
0.000723622
0.000266787
0.00104729
0.000398246
0.000166042
0.000712403
0.000786361
0.00105763
0.00161808
0.00019537
0.000960243
0.000443801
0.00020236
0.000726408
0.000292006
0.00134657
0.000524498
0.00139377
0.000251234
0.00106796
0.000487829
0.00133444
0.00101782
0.000265207
0.00333047
0.00312498
0.00278045
0.00380621
0.00196034
0.00254896
0.00252156
0.00217554
0.00273811
0.00301102
0.0019944
0.00268183
0.00323446
0.00333964
0.003076
0.00223316
0.00273513
0.00323236
0.00289971
0.00322945
0.00379023
0.00308729
0.00304776
0.0034084
0.00390834
0.00353823
0.00273798
0.00066339
0.00344157
0.00148311
0.000270604
0.00284945
0.00140668
0.00051605
0.00301121
0.00232764
0.00103823
0.00182633
0.000290962
0.00314305
0.00274585
0.00131385
0.00203078
0.000588828
0.00305976
0.00277353
0.00309731
0.00349635
0.00274543
0.00283734
0.00111884
0.00177873
0.00213129
0.00250226
0.000441126
0.000289363
0.00171268
0.00279431
0.00201336
0.00192811
0.00278351
0.00252993
0.00203967
0.002434
0.00251532
0.00278016
0.00289908
0.00164668
0.00106534
0.000610813
0.00136011
0.00110815
0.00154441
0.000549019
0.00179649
0.00130091
0.00220518
0.00250533
0.00237405
0.00202776
0.000135215
0.00126773
0.0012897
0.00130824
0.00199721
0.00200327
0.00276358
0.00280496
0.00285667
0.00360061
0.00044681
0.000700161
0.000223408
0.00108352
0.000652395
0.000489338
0.00109635
0.000411751
0.00116538
0.00129028
0.00174856
0.000769017
0.000306972
0.00190698
0.000536145
0.00174196
0.000259622
0.00115826
0.000492562
0.00134607
0.00101732
0.000263609
0.00130773
0.000581118
0.00548263
0.00701942
0.00278817
0.00382151
0.00349129
0.00236833
0.00302657
0.00389716
0.0020399
0.00276696
0.0033872
0.00347841
0.00321476
0.0022304
0.00322494
0.0037914
0.00391312
0.00355758
0.00176182
0.00261423
0.00309655
0.00336976
0.00316968
0.0037641
0.00319442
0.00336401
0.00379796
0.00434031
0.00335284
0.00329921
0.00357321
0.00389016
0.00401611
0.00442132
0.00360274
0.00376387
0.00518853
0.00202775
0.000284789
0.00393274
0.00168823
0.000523675
0.00380952
0.00269861
0.00113218
0.00211772
0.00030065
0.0033145
0.00283511
0.00131719
0.00205888
0.000589623
0.00310177
0.00351972
0.00280496
0.00112696
0.0017678
0.00246367
0.000291006
0.00305001
0.0032744
0.00306639
0.00354584
0.00353709
0.00372482
0.00273227
0.00288631
0.00336826
0.00134249
0.00191384
0.00207016
0.00241535
0.00266354
0.00277823
0.000155912
0.000194358
0.000530675
0.00183712
0.00279082
0.00319204
0.00281934
0.00199173
0.0024152
0.00199676
0.00203285
0.00275462
0.00282773
0.00359614
0.00233436
0.00158273
0.00130468
0.000954903
0.00122716
0.00124642
0.00113488
0.00146719
0.000810801
0.00195989
0.00157767
0.00250038
0.00271922
0.00254321
0.00231662
0.00047744
0.00107649
0.00116468
0.00156685
0.00116064
0.002351
0.00202734
0.0015423
0.00200616
0.00236882
0.00186232
0.00280293
0.00280295
0.00357763
0.0028175
0.00317888
0.00322089
0.00360884
0.00366592
0.00441604
0.000201092
0.000835662
0.000460245
0.000499628
0.000218066
0.0010791
0.00144352
0.000178463
0.000732087
0.0014479
0.00111771
0.000708495
0.00290118
0.000272268
0.00150591
0.000482341
0.00142819
0.0010308
0.000270422
0.00130468
0.000581604
0.000300428
0.00517138
0.00763301
0.00645966
0.00326829
0.00425536
0.00635035
0.00238693
0.00335895
0.00428843
0.00422727
0.00386674
0.0022865
0.00332308
0.00395109
0.00418346
0.00384362
0.0017502
0.00260863
0.00316335
0.00375108
0.00435268
0.00403392
0.00443692
0.00378366
0.00181332
0.00202962
0.00249243
0.00304541
0.00377084
0.0033588
0.00353139
0.00434996
0.00362643
0.00386249
0.00423627
0.00480906
0.00373765
0.00398623
0.00418046
0.00457666
0.0044491
0.00497819
0.00370085
0.00386011
0.00417249
0.00762951
0.00274763
0.000681213
0.00645949
0.00388687
0.00144603
0.00311065
0.00031679
0.00405693
0.00339925
0.00137519
0.00228701
0.000583419
0.00321476
0.00374179
0.00287625
0.0011384
0.00180939
0.00254399
0.000293347
0.0035486
0.00373609
0.00332
0.00134819
0.00205937
0.00273572
0.000529916
0.0032716
0.0032813
0.00309309
0.00357868
0.00371495
0.00372205
0.00362083
0.0041618
0.00304106
0.00315643
0.0035459
0.00362892
0.00106672
0.00184852
0.00200002
0.00209935
0.00255509
0.00232238
0.00288901
0.00327575
0.000464487
0.000263791
0.00331152
0.00361695
0.00333759
0.00286499
0.00310586
0.0022816
0.00169264
0.00252473
0.00254666
0.00235574
0.00154348
0.00199151
0.00237885
0.00199213
0.00153373
0.00279468
0.002824
0.00357245
0.00281418
0.00318933
0.00362722
0.00440465
0.00188922
0.00149016
0.00119385
0.000669648
0.000880068
0.000893796
0.0022404
0.00271594
0.000511565
0.00156638
0.00171944
0.00146693
0.00240206
0.00191834
0.00217555
0.00169812
0.00230274
0.00241164
0.00252614
0.0021362
0.00315343
0.0028474
0.00271259
0.00313318
0.00280905
0.00360824
0.00359803
0.00439388
0.00310478
0.00333138
0.00361273
0.00398205
0.00360152
0.00403078
0.00441446
0.00445664
0.00522372
0.000431381
0.000894483
0.000464233
0.00107282
0.00156133
0.00170462
0.000409933
0.000740243
0.0012928
0.000286917
0.0021524
0.000487471
0.00173138
0.00112665
0.000278781
0.00131162
0.000584762
0.000300685
0.000559861
0.00619857
0.00867289
0.0100326
0.00376809
0.00537352
0.00720341
0.00641937
0.00582202
0.00266515
0.00395665
0.00490252
0.00541725
0.00505758
0.00178773
0.00266007
0.00330464
0.00394878
0.00458224
0.00433027
0.00478781
0.00404088
0.00201714
0.00248137
0.00351144
0.00435217
0.0048266
0.00460285
0.00501375
0.00418475
0.00208136
0.00196718
0.00264012
0.00273368
0.00327773
0.00408492
0.00350033
0.00361606
0.00402556
0.00326507
0.00438457
0.00448921
0.00482427
0.00408548
0.00434177
0.00450321
0.00495293
0.00528255
0.00403224
0.00424973
0.00459575
0.00503827
0.00466849
0.00481159
0.00507745
0.00539126
0.00348359
0.00390436
0.00400994
0.00430767
0.0124811
0.00762254
0.00197145
0.00500487
0.000332089
0.00641957
0.00556265
0.00165094
0.00306953
0.000604214
0.00382619
0.00469812
0.00336358
0.00124263
0.00209995
0.00307693
0.000303842
0.00368993
0.00388895
0.00346489
0.00135263
0.00208396
0.00279791
0.000530457
0.00368788
0.00417565
0.00356082
0.0010633
0.00184799
0.00253817
0.00322886
0.00026255
0.00329844
0.00371889
0.00424156
0.00395619
0.00388372
0.00426742
0.00447027
0.00318678
0.00356576
0.00378283
0.00422079
0.00102841
0.00134222
0.0021408
0.00241552
0.00269273
0.00287813
0.00253818
0.00279085
0.00349574
0.00363406
0.000200725
0.000517953
0.00397558
0.00362807
0.00296062
0.00322171
0.00233859
0.0017144
0.00254998
0.00245561
0.00160694
0.00175095
0.00224688
0.00230703
0.00174607
0.00137848
0.00316373
0.00275612
0.00319588
0.00275797
0.00360288
0.0036223
0.00438645
0.00310818
0.00321429
0.00332067
0.00359485
0.00397273
0.00370578
0.00442718
0.00442084
0.00521159
0.00215575
0.000880974
0.000850449
0.00234634
0.00304008
0.000147952
0.000676414
0.00162809
0.00179592
0.00122513
0.00262387
0.00158652
0.00217699
0.00205254
0.00247872
0.00228241
0.00242326
0.00254696
0.00211966
0.00314955
0.00280064
0.00300079
0.0030851
0.00398382
0.00364481
0.00363346
0.00399604
0.00360124
0.00443264
0.00442356
0.00520577
0.00389437
0.00412406
0.00388691
0.00413088
0.00442299
0.00435537
0.00475207
0.00440769
0.00482652
0.00459175
0.00521326
0.0052493
0.00601978
0.000191727
0.000594275
0.00078972
0.000154815
0.00108138
0.00155834
0.00154365
0.000189392
0.00115972
0.000625996
0.00305936
0.00146126
0.000292039
0.00137509
0.000584903
0.000301445
0.000567888
0.000269478
0.00107188
0.00700363
0.0090749
0.0124176
0.0107613
0.0101018
0.00407155
0.00610136
0.00789465
0.00865993
0.00821458
0.00207749
0.00299268
0.00414951
0.00505258
0.00571736
0.00558433
0.00627551
0.00506299
0.00205101
0.0025467
0.0036116
0.00476162
0.00515218
0.00494154
0.00545515
0.00443508
0.00195946
0.00272337
0.00400958
0.0032495
0.00447353
0.00483317
0.00531745
0.00508596
0.0046994
0.00542891
0.0024664
0.00281744
0.00406579
0.00379402
0.00393257
0.00341095
0.00422555
0.00429581
0.00348164
0.00454974
0.00473822
0.00504636
0.00495943
0.00529298
0.00474485
0.00518297
0.00537484
0.00569326
0.00414886
0.00465633
0.00491054
0.0051381
0.00557223
0.00508049
0.00486128
0.00540399
0.00588256
0.00378388
0.00436139
0.0129409
0.011173
0.00256416
0.00508714
0.00081121
0.00604505
0.00809751
0.00499759
0.00163571
0.00300473
0.00471379
0.000318745
0.0045541
0.00466079
0.00433016
0.00141267
0.00230768
0.00325341
0.000520929
0.00381314
0.00438891
0.00369443
0.00107985
0.00190033
0.00264273
0.00340333
0.000268693
0.00421547
0.00446246
0.00415219
0.00133698
0.00213371
0.00285369
0.00358347
0.000520873
0.00399632
0.00432966
0.00453934
0.00450689
0.00495924
0.00391756
0.00408166
0.00442966
0.00449157
0.0013117
0.00106671
0.00187072
0.0026756
0.00244838
0.00295887
0.0034053
0.00357798
0.0037668
0.00418022
0.000424272
0.000270333
0.00412879
0.0039291
0.0033792
0.00201664
0.00244797
0.00163766
0.00282621
0.00248416
0.00123252
0.00197856
0.00163799
0.00220764
0.00245844
0.00233511
0.00152804
0.0020171
0.00163318
0.00106774
0.00335611
0.00308303
0.00332766
0.00323507
0.00300759
0.00397238
0.00361596
0.00396456
0.00354527
0.00440655
0.00441113
0.00520053
0.00312165
0.00326486
0.0033302
0.00388873
0.00399591
0.00376923
0.00439895
0.00480021
0.004437
0.00476935
0.00445172
0.00523804
0.00522253
0.00601772
0.000816994
0.000813931
0.00310994
0.00112601
0.00183601
0.00132858
0.00176221
0.00155996
0.00204147
0.00252691
0.00207554
0.00245121
0.00246257
0.00262796
0.00250946
0.00264509
0.0021225
0.00337953
0.00317034
0.00329134
0.00293749
0.00294102
0.0042116
0.00396872
0.00389719
0.0041302
0.00411815
0.00390326
0.00483239
0.00447595
0.00440312
0.00440492
0.00478446
0.00523509
0.00522057
0.00600888
0.0047025
0.00471114
0.00469347
0.00493033
0.00554722
0.00520659
0.0051192
0.00521144
0.00560796
0.00515967
0.00600851
0.00603657
0.00681131
0.00019463
0.00045629
0.000419311
0.00108789
0.000205074
0.000405111
0.00117094
0.00158401
0.00154147
0.002048
0.000308283
0.00164157
0.000613529
0.000310783
0.000564342
0.000269922
0.00107027
0.000553942
0.00129901
0.00747633
0.0107397
0.0139457
0.0138544
0.0129412
0.00311459
0.00431742
0.00692607
0.00821807
0.00900243
0.00875504
0.0101255
0.00806116
0.00229363
0.00296774
0.00430995
0.00663105
0.00661606
0.00626874
0.0071092
0.00547547
0.00199316
0.00275938
0.00431456
0.00341849
0.00477572
0.00523946
0.0057459
0.00555597
0.00511064
0.0058975
0.00246546
0.00426375
0.003463
0.00504566
0.00531451
0.00574634
0.00564651
0.00509441
0.00596026
0.00251548
0.00430107
0.0042321
0.0035569
0.00441213
0.0040144
0.00478854
0.00310654
0.00481752
0.00512965
0.00516907
0.00542725
0.00529432
0.00570273
0.00547369
0.00541766
0.00568367
0.00614895
0.00482925
0.00500663
0.00552141
0.00577037
0.00556301
0.0059752
0.00510589
0.00566001
0.00594724
0.00628261
0.00464015
0.0127306
0.0163533
0.00897279
0.00236222
0.00453503
0.00749598
0.000335788
0.00791574
0.00752406
0.00702269
0.00170724
0.00307652
0.00460864
0.0005367
0.00458408
0.0054855
0.00448952
0.00118914
0.00223649
0.0032336
0.0043116
0.000276861
0.00445618
0.00463164
0.00444526
0.00134287
0.0021678
0.00292039
0.00372548
0.000521851
0.00446521
0.00496359
0.00442226
0.00106406
0.00186058
0.00266404
0.00338197
0.00414427
0.000271317
0.00411044
0.00442189
0.00472811
0.00508048
0.00477593
0.00506422
0.00526903
0.00403291
0.00441652
0.00459203
0.00500987
0.00131295
0.00196897
0.00236881
0.00276909
0.00302907
0.0035631
0.00372848
0.00406117
0.00437241
0.00450322
0.000563233
0.00220149
0.0026631
0.00303144
0.00260285
0.0013398
0.00207372
0.00193626
0.00226164
0.00249507
0.00250268
0.00162048
0.00116977
0.00197184
0.00216844
0.00189608
0.00131654
0.00135591
0.00344994
0.00300146
0.00327485
0.00337958
0.00326318
0.00300604
0.00411099
0.00396389
0.00358591
0.00405972
0.00379405
0.00438133
0.00476134
0.00477982
0.00435399
0.00523318
0.00522276
0.00600881
0.00327278
0.00360369
0.00389414
0.004147
0.00468292
0.0048229
0.00491455
0.00458897
0.00478557
0.00457249
0.00520717
0.0056135
0.00528128
0.00558233
0.00520193
0.00604054
0.00602006
0.00682085
0.00038162
0.00114908
0.00192866
0.00172077
0.00149248
0.00162583
0.00219523
0.0022279
0.00207237
0.00256289
0.00220138
0.00265945
0.0025149
0.0021119
0.00339828
0.00317634
0.00294214
0.00309373
0.00414696
0.00394132
0.00382506
0.00414471
0.00416749
0.00391892
0.00505126
0.00493044
0.00480976
0.00441119
0.00465661
0.0047024
0.00489839
0.00559634
0.00530658
0.00555333
0.00520111
0.00517939
0.0060244
0.00600634
0.006811
0.00462306
0.00549606
0.00549272
0.00571441
0.00567085
0.00637545
0.00599913
0.00598989
0.00639245
0.00600022
0.00595972
0.00681557
0.00682204
0.00760415
0.000290249
0.000162315
0.000548775
0.00101464
0.000175217
0.00150849
0.00174599
0.00156501
0.00271852
0.00081074
0.000326809
0.000551478
0.000271575
0.00108063
0.000559347
0.00129431
0.00516047
0.00845001
0.0121175
0.0135215
0.0170128
0.0144971
0.0186093
0.01446
0.00320553
0.00457761
0.00661799
0.0115902
0.0107636
0.00958277
0.0111653
0.00859519
0.00222334
0.00304462
0.0057816
0.00439716
0.00623037
0.00699758
0.00745123
0.00725292
0.006715
0.00756342
0.0025306
0.00448736
0.00355504
0.00550325
0.00586279
0.00631971
0.00625959
0.00544457
0.00662569
0.00251369
0.00400621
0.0047822
0.00310111
0.00514531
0.00542961
0.00574044
0.00623216
0.00561747
0.00603856
0.00637582
0.00476967
0.0042127
0.00509482
0.00332743
0.00543986
0.00514069
0.00526831
0.00567718
0.00593391
0.00557947
0.00579397
0.00610001
0.00573598
0.00595709
0.00625076
0.00665029
0.00534298
0.00560829
0.00582839
0.00603702
0.0056858
0.00594112
0.00647922
0.00539653
0.0062655
0.00668182
0.0165377
0.0149904
0.012121
0.00269081
0.00483596
0.00724409
0.000690661
0.00717846
0.00930937
0.00665337
0.00154236
0.00325248
0.00483861
0.00664615
0.000289985
0.00580149
0.00559606
0.00582923
0.00140967
0.00242646
0.00339321
0.00454012
0.000512596
0.00467813
0.00532386
0.00465286
0.00107835
0.0019138
0.00277376
0.00359575
0.00448687
0.000272065
0.00500853
0.00523366
0.00497342
0.00131925
0.0023327
0.00299999
0.00369428
0.00445091
0.000569032
0.00476663
0.00524737
0.00531806
0.0053094
0.00577749
0.00489484
0.0051873
0.00525841
0.00171056
0.00100255
0.0025928
0.00286762
0.0022395
0.00351824
0.00377505
0.00425882
0.00403132
0.004586
0.00498823
0.000261924
0.0028878
0.00248973
0.00242831
0.00239802
0.00277045
0.00225212
0.00280474
0.0013364
0.000996739
0.00188536
0.00205286
0.00168437
0.00124354
0.00108069
0.00369998
0.00321647
0.00313634
0.00330813
0.00364226
0.00333859
0.00359581
0.00311802
0.00411495
0.00408413
0.00398608
0.00386803
0.00410885
0.00454143
0.00484948
0.0049202
0.00466166
0.00562151
0.00525081
0.00559915
0.0052351
0.00603298
0.00602759
0.00681436
0.00360484
0.00470119
0.00501039
0.00493029
0.00499107
0.00551062
0.00573941
0.00562377
0.00537172
0.00568634
0.00548572
0.00602581
0.00639623
0.00598078
0.00638229
0.00595244
0.00682343
0.00681565
0.00761976
0.000507003
0.00188954
0.00171262
0.00155187
0.00206014
0.00152306
0.00238325
0.00212778
0.00284772
0.00227585
0.00257378
0.00250853
0.0029555
0.00215729
0.0033456
0.00320886
0.0032794
0.00395479
0.00388681
0.0040954
0.00441639
0.00454985
0.00405797
0.00506301
0.00489239
0.00503715
0.00476924
0.0049448
0.00471543
0.00491608
0.00572181
0.00561653
0.00529386
0.00548289
0.0054618
0.00523537
0.00637071
0.00606813
0.00599347
0.00638145
0.00603449
0.00681255
0.00681858
0.00760944
0.00547495
0.00633117
0.00650473
0.00628394
0.00650379
0.00648406
0.0062799
0.00624411
0.00717307
0.00678688
0.00690394
0.00716232
0.00678832
0.00695277
0.00760174
0.00761775
0.00839723
0.000292833
0.000248685
0.000550071
0.00101565
0.00212543
0.002314
0.00174336
0.00034418
0.000567709
0.000280135
0.00119346
0.000559921
0.0013087
0.00586275
0.0085936
0.0111911
0.0197943
0.0201484
0.0167018
0.0205655
0.0157685
0.00325888
0.00449655
0.00939062
0.0072933
0.00974105
0.0114821
0.0121264
0.0115186
0.0112707
0.0114242
0.00301006
0.00567324
0.00424432
0.00738589
0.0080019
0.00842972
0.00831218
0.0069509
0.008726
0.00255944
0.00434177
0.00528466
0.00325538
0.00557306
0.00588332
0.00632577
0.00695271
0.0061925
0.00663626
0.00712462
0.00420559
0.00509257
0.00331899
0.00570102
0.00596847
0.00615266
0.0067816
0.00594946
0.00664139
0.00683849
0.0047847
0.00565059
0.00566681
0.00560204
0.0058641
0.00605809
0.00594591
0.00599192
0.00625958
0.00610195
0.00663072
0.00643948
0.00678765
0.00712914
0.00618797
0.00638033
0.00596993
0.00645585
0.00661821
0.00678279
0.0067459
0.00556559
0.00649449
0.0067863
0.00714568
0.0137598
0.0172819
0.0111987
0.00212826
0.00492723
0.00721689
0.0100626
0.000306388
0.00990713
0.00883574
0.00945849
0.00168762
0.00326457
0.00482029
0.00660003
0.000522687
0.00584677
0.00709331
0.00579897
0.00117984
0.00226389
0.0034167
0.00462177
0.00592502
0.000280474
0.00541824
0.0055285
0.00547295
0.00133393
0.0023834
0.00308503
0.00382665
0.00466936
0.000570658
0.00523081
0.0057771
0.00520146
0.00170431
0.00100552
0.00282037
0.00221975
0.00348854
0.00423311
0.00497881
0.00026329
0.00498571
0.00545668
0.00521737
0.00580804
0.00587749
0.0060707
0.00489363
0.00525269
0.00540155
0.00572103
0.00333642
0.00271319
0.00367835
0.00435781
0.00455063
0.00518499
0.00526491
0.00271545
0.00266116
0.00294531
0.00222041
0.00307289
0.00273996
0.00132548
0.00100154
0.00187203
0.00204166
0.00261422
0.00168219
0.0012513
0.00107557
0.00325932
0.00372681
0.00363042
0.00382441
0.0036392
0.00383918
0.0035233
0.00440072
0.00438644
0.00430243
0.00442473
0.00485657
0.00484281
0.00500625
0.0049395
0.00473476
0.00493009
0.00570362
0.00546158
0.00571248
0.0055269
0.00595752
0.00638213
0.00636591
0.00607496
0.00680932
0.00681449
0.00761709
0.00520083
0.00548993
0.00574668
0.00570409
0.00574866
0.00561257
0.00569172
0.00551649
0.00630034
0.0065119
0.00626907
0.00650116
0.00628607
0.006799
0.00718839
0.00677122
0.00716646
0.00682665
0.00760817
0.00760069
0.00841114
0.000512666
0.0018981
0.00173581
0.00156532
0.00205499
0.00152893
0.0023696
0.00248717
0.0028444
0.00228452
0.00257815
0.00302598
0.00255543
0.00293986
0.00321666
0.0024766
0.00364048
0.00316891
0.00399907
0.00388221
0.00381382
0.00431867
0.00453699
0.00438128
0.00463531
0.00450375
0.00496973
0.0048105
0.00513259
0.00569408
0.00581571
0.00565476
0.00547754
0.00544294
0.00573006
0.00559284
0.00637656
0.00610496
0.00627873
0.00651008
0.00634441
0.00715092
0.00681617
0.00680335
0.00717538
0.0067972
0.00759786
0.00760238
0.00840186
0.00636093
0.00652286
0.00628528
0.00645139
0.00672715
0.00729181
0.0071218
0.00706545
0.00665866
0.00707662
0.00717223
0.00794458
0.00757885
0.00749375
0.00758025
0.00798319
0.00752729
0.00837893
0.00840269
0.00919031
0.000294367
0.000249813
0.000554501
0.00102638
0.00454564
0.00240737
0.000745895
0.000292764
0.00156719
0.000548453
0.00141442
0.00637187
0.00889839
0.0141268
0.0116543
0.0158682
0.020651
0.0231364
0.0197848
0.0197707
0.0221995
0.0051852
0.00856967
0.00656057
0.0118068
0.013256
0.0139803
0.0132525
0.0110597
0.0138494
0.00285884
0.00586744
0.0071899
0.00418621
0.00729873
0.00771052
0.00842207
0.00929708
0.00829687
0.00847585
0.00927584
0.00442891
0.00547999
0.00341358
0.00642038
0.0066295
0.00691257
0.00773086
0.00637755
0.00762273
0.00784856
0.00480653
0.0057099
0.00606354
0.00595875
0.00628714
0.006785
0.00727934
0.00654698
0.00691666
0.00682756
0.00739274
0.00592413
0.00613559
0.00602351
0.00653733
0.00646118
0.00598809
0.00626844
0.00676972
0.0066953
0.00697663
0.00687424
0.00716593
0.00765611
0.00626069
0.00657124
0.00677196
0.00686798
0.00682485
0.00725494
0.00726733
0.00685865
0.00716888
0.0074389
0.0174127
0.0161387
0.0155471
0.00270433
0.00531373
0.00762486
0.010221
0.000680366
0.00906551
0.0119216
0.0085766
0.00152511
0.00335257
0.00528934
0.00716908
0.00921056
0.000295298
0.00728985
0.00706558
0.00738027
0.00143871
0.00272093
0.00362615
0.00461311
0.00580724
0.000565733
0.00554309
0.0063326
0.00557311
0.00172316
0.00100958
0.00291461
0.00225659
0.00363782
0.00454051
0.00553147
0.000264665
0.00576153
0.00602317
0.0057229
0.00330193
0.0026966
0.00364492
0.00451387
0.0052285
0.00568742
0.00599745
0.00604686
0.0061107
0.00654978
0.00598293
0.00595859
0.00420314
0.00457464
0.0050509
0.00531998
0.00569708
0.0029543
0.00221431
0.00305474
0.00273012
0.00134119
0.00101054
0.00190349
0.00207042
0.00260308
0.00170305
0.00126163
0.00108473
0.00323841
0.00375275
0.00364095
0.00384045
0.00356894
0.0038988
0.00358719
0.00427461
0.00465504
0.00443227
0.00480481
0.00513481
0.00536167
0.0052051
0.00491303
0.00497012
0.00577279
0.00577079
0.00572468
0.00556974
0.00581067
0.00603027
0.00632011
0.00634648
0.00714492
0.00663207
0.00717583
0.0066564
0.00759304
0.00760538
0.00840791
0.0056145
0.00595322
0.00598565
0.00598434
0.00624429
0.00647461
0.00648005
0.00625286
0.00651645
0.0063133
0.00707346
0.00729179
0.00728559
0.00707786
0.00729663
0.00715246
0.00691723
0.00757625
0.00796527
0.0075597
0.00794926
0.00752903
0.00839363
0.00839074
0.00919879
0.000513909
0.00193313
0.00191437
0.00159531
0.00206423
0.00154651
0.00238199
0.00392019
0.00285411
0.00233528
0.00263697
0.0030342
0.00286312
0.00304
0.00320938
0.00362271
0.00378768
0.00318134
0.0039853
0.0041356
0.00384724
0.00424414
0.00453778
0.0043185
0.00464689
0.00449353
0.00497247
0.00557649
0.00507282
0.00503936
0.00587108
0.00552913
0.00572228
0.00634513
0.0064847
0.00635861
0.00623997
0.0064632
0.00633513
0.00647111
0.00713038
0.00686096
0.00708633
0.00730172
0.00711042
0.00686836
0.00794699
0.00759933
0.00760174
0.00758554
0.00795827
0.00839545
0.00838909
0.00919328
0.00649631
0.00675237
0.00639357
0.00666502
0.00725311
0.00711028
0.00701508
0.0069962
0.0070963
0.00807626
0.00786424
0.00785819
0.00753236
0.00785417
0.0080798
0.00807059
0.00756343
0.00875475
0.0083581
0.00856425
0.00872117
0.00836445
0.00836579
0.00918494
0.00918291
0.00998518
0.000303357
0.000251436
0.000563271
0.00111513
0.00493655
0.000307059
0.00219918
0.00056495
0.00174054
0.0108159
0.0129893
0.0112324
0.0191999
0.0237239
0.0263577
0.0231879
0.0186454
0.0254137
0.00418743
0.00951432
0.0110862
0.00732906
0.0108601
0.011885
0.0132847
0.0149128
0.0135492
0.0125106
0.0140329
0.00560447
0.00706704
0.00407052
0.0087829
0.00894368
0.00945071
0.0104097
0.00810361
0.0104275
0.0106489
0.00526248
0.00642028
0.00668386
0.00655383
0.00692654
0.00792781
0.00836288
0.00741145
0.00781766
0.00758516
0.00872509
0.00594346
0.00661212
0.00658244
0.00686848
0.00705949
0.00799323
0.00678167
0.00750232
0.00745559
0.00764609
0.0064565
0.00670125
0.00673712
0.00690607
0.00660962
0.00672946
0.00683103
0.00697976
0.00745823
0.00735346
0.00764682
0.00807641
0.00783459
0.00638959
0.00683895
0.00722601
0.00712107
0.00710504
0.00741726
0.00750795
0.0074013
0.00748706
0.00728667
0.00749322
0.00795355
0.0155112
0.0192788
0.0137371
0.00211287
0.00525217
0.00834585
0.0106812
0.0137969
0.000310579
0.0119344
0.0110157
0.0114951
0.00183563
0.0038175
0.00534239
0.00689029
0.00860859
0.000589428
0.00702658
0.00860317
0.00711454
0.00186648
0.00107891
0.00353108
0.00257637
0.00452997
0.00597286
0.00754975
0.000272344
0.00641278
0.00644577
0.00644794
0.00341289
0.00274937
0.0037493
0.00469433
0.00558348
0.00597245
0.00657418
0.00592216
0.00417103
0.00503477
0.00572099
0.00619669
0.00651206
0.00668091
0.00680274
0.0061447
0.00640026
0.00550406
0.00586405
0.00603313
0.00294363
0.00225057
0.00305148
0.00280807
0.00144328
0.00109156
0.00213643
0.00229151
0.00266739
0.0018699
0.00134415
0.00115369
0.00334432
0.00373674
0.00365041
0.00384049
0.00356128
0.0038969
0.00358111
0.00425207
0.00466243
0.00443901
0.00488289
0.00479359
0.00534273
0.00549997
0.00520223
0.00530355
0.0053128
0.00603487
0.00582034
0.00594798
0.00568494
0.00585902
0.00629868
0.00632743
0.00638019
0.00711178
0.0067752
0.00718304
0.00685113
0.0079305
0.00764538
0.00793961
0.00765594
0.00838953
0.00839241
0.00919781
0.00638286
0.00642918
0.00673663
0.00646656
0.00678741
0.00647064
0.00703106
0.00727852
0.00728123
0.00719767
0.00707841
0.00724516
0.00715782
0.00728893
0.00785688
0.00807775
0.00803129
0.00780616
0.00803515
0.00778769
0.00836312
0.00875308
0.00838129
0.00874615
0.00838473
0.00918575
0.00917787
0.0099948
0.00050743
0.00209564
0.00269837
0.00176683
0.0021028
0.00169317
0.00242382
0.00900171
0.00293712
0.00270836
0.00307976
0.00314576
0.00417408
0.00377279
0.00328453
0.00360219
0.00769332
0.00325434
0.00415973
0.00549349
0.00384146
0.00423746
0.00453421
0.00498479
0.00432387
0.00464005
0.00484763
0.00536003
0.00561115
0.00554796
0.00503585
0.0058901
0.00600811
0.00667355
0.006569
0.00638826
0.00674193
0.00661533
0.00664886
0.00713258
0.00735908
0.00696098
0.00704968
0.00728069
0.00711679
0.00735809
0.00804722
0.00785632
0.00791734
0.00786147
0.00807451
0.00873487
0.00840234
0.00871034
0.00836418
0.00839692
0.00917941
0.00917056
0.00998954
0.00695994
0.0072237
0.00751257
0.00721602
0.00730344
0.00804866
0.00780474
0.00798461
0.00780843
0.00759048
0.0077531
0.00799388
0.00785225
0.00799154
0.00887418
0.00882026
0.00864905
0.00848342
0.00832716
0.00864189
0.00865321
0.00951731
0.00915739
0.00911446
0.00916587
0.00915829
0.00952683
0.00996837
0.00998302
0.0107856
0.000318984
0.0002561
0.000610018
0.00145626
0.000729482
0.00295754
0.00947412
0.0142025
0.0157909
0.0133416
0.0167593
0.0204641
0.0246743
0.0292456
0.0224508
0.0231372
0.0271386
0.00863768
0.0104254
0.00643699
0.0135301
0.0142091
0.0152722
0.0160704
0.0122317
0.0167723
0.0171336
0.00708979
0.00874024
0.00877331
0.00854543
0.00909426
0.0110364
0.0109974
0.0101721
0.0102591
0.00986879
0.0119867
0.0064459
0.0075633
0.0075959
0.00782443
0.00797904
0.00952773
0.00740692
0.00875618
0.00860431
0.00883465
0.00657498
0.00678025
0.00695736
0.00678493
0.00772503
0.00838635
0.0081011
0.00733526
0.00765209
0.00757793
0.00835364
0.00674667
0.00685066
0.00719806
0.0073815
0.00686534
0.00722069
0.00753347
0.00766762
0.00784789
0.00781044
0.00819911
0.00865952
0.00845875
0.00739881
0.00752186