/*--------------------------------*- C++ -*----------------------------------*\
  =========                 |
  \\      /  F ield         | OpenFOAM: The Open Source CFD Toolbox
   \\    /   O peration     | Website:  https://openfoam.org
    \\  /    A nd           | Version:  10
     \\/     M anipulation  |
\*---------------------------------------------------------------------------*/
FoamFile
{
    format      ascii;
    class       volVectorField;
    location    "29";
    object      U;
}
// * * * * * * * * * * * * * * * * * * * * * * * * * * * * * * * * * * * * * //

dimensions      [0 1 -1 0 0 0 0];

internalField   nonuniform List<vector> 
111443
(
(1.89213 0.00416857 0.00207912)
(1.89053 0.000465286 -0.00425145)
(1.89494 0.00503906 0.00718821)
(1.89274 0.00988554 0.0261358)
(1.88518 0.00568098 -0.0112287)
(1.89309 -0.00865659 0.0301225)
(1.91174 0.000185048 0.0363921)
(1.90203 0.0193584 0.0288367)
(1.89426 0.004249 0.00754077)
(1.89275 -0.00135185 0.000614792)
(1.89748 0.0243896 0.0616722)
(1.88077 -0.00176972 -0.0204793)
(1.91282 -0.0150806 0.0631553)
(1.89273 -0.00022035 0.0136183)
(1.91611 -0.00521772 0.027619)
(1.9106 0.00214347 0.0218505)
(1.90973 0.0143222 0.0214109)
(1.91977 0.0142034 0.0282398)
(1.89614 0.00431564 0.0088038)
(1.89809 0.00577645 0.0107669)
(1.89662 0.0125572 0.0193417)
(1.88838 -0.00527888 0.00239046)
(1.90064 0.0234527 0.086941)
(1.94232 0.00683969 0.0367961)
(1.87517 -0.010839 -0.0274129)
(1.89984 -0.0269994 0.0591034)
(1.91285 -0.0239316 0.0384887)
(1.89043 5.08144e-05 0.0151325)
(1.89561 -0.00192517 0.0150038)
(1.93301 -0.0010584 0.0426885)
(1.92709 0.0091181 0.0395633)
(1.91733 0.0105499 0.0194214)
(1.89874 0.0047072 0.0108549)
(1.89914 0.00943455 0.00929944)
(1.90969 0.0146977 0.0167721)
(1.92102 0.00490725 0.0299943)
(1.89366 0.000435106 0.00110178)
(1.90083 0.00669788 0.0102702)
(1.89357 0.00230744 0.00112744)
(1.90324 0.0115544 0.0126074)
(1.89248 -0.0047039 0.000200231)
(1.89227 0.0168971 0.0469719)
(1.88671 -0.00853145 -0.00449174)
(1.90179 0.0178859 0.0913275)
(1.9318 -0.00207957 0.0595854)
(1.92689 -0.00271977 0.0411439)
(1.93198 -0.00148668 0.0516928)
(1.8563 -0.0106102 -0.0372798)
(1.88661 -0.0258246 0.0503122)
(1.89119 -0.0324662 0.0391332)
(1.8866 -0.000780022 0.0110806)
(1.96234 -0.00972755 0.0975915)
(1.91139 -0.0163978 0.0766527)
(1.8937 0.0012625 0.00309637)
(1.90212 -0.00743432 0.0435686)
(1.92602 0.0192552 0.0220096)
(1.9432 0.016188 0.0321429)
(1.94738 0.0175087 0.0259161)
(1.9181 0.0031306 0.0373932)
(1.90347 0.0080587 0.00506084)
(1.89544 0.00138695 0.00549275)
(1.90089 0.00457131 0.00951835)
(1.89523 0.00171051 0.000886071)
(1.91568 0.0246835 0.0157028)
(1.92618 0.0160141 0.0294655)
(1.89352 0.00102328 0.00167628)
(1.90598 0.00804942 0.00677722)
(1.89494 0.00207966 0.00192544)
(1.89443 0.00658937 0.00127314)
(1.91026 0.0140149 0.0123202)
(1.89819 0.00750768 0.00380238)
(1.89127 -0.00877551 -0.0055306)
(1.89011 0.0245705 0.0620987)
(1.87909 -0.0251389 -0.0120203)
(1.91922 -0.00635129 0.0296743)
(1.8826 -0.0126897 -0.00946994)
(1.84679 0.00679898 0.0606391)
(1.90002 0.00394031 0.0713258)
(1.91589 -0.0084386 0.0479623)
(1.91655 -0.00625921 0.0646384)
(1.93055 0.0128424 0.0377306)
(1.93428 -0.0193376 0.0172913)
(1.75428 -0.0126347 -0.0394892)
(1.8217 -0.0296717 0.0225196)
(1.86892 -0.0268238 0.0306354)
(1.88166 -0.00157248 0.00452058)
(1.96074 -0.0291495 0.1193)
(1.92008 -0.0244151 0.0974735)
(2.00991 -0.000542437 -0.0158336)
(1.98454 0.00173925 -0.00355532)
(1.89041 0.00330213 0.00186593)
(1.8934 0.00114776 0.00217391)
(1.89489 0.0034667 0.0137312)
(1.93549 0.00606251 0.0201294)
(1.93204 0.0169561 0.0103086)
(1.95953 0.00660297 -0.00652952)
(1.94274 0.0204423 0.0261418)
(1.93937 0.0286978 0.0223185)
(1.94286 0.0183271 0.0160936)
(1.90604 0.00298712 0.00652824)
(1.90811 0.00495772 0.0038297)
(1.89762 0.00236205 0.00244721)
(1.89449 0.00206202 0.00391794)
(1.90783 0.0209808 0.0167148)
(1.89835 0.0186829 0.00405482)
(1.91875 0.0342032 0.0224788)
(1.91697 0.0283808 0.0160963)
(1.89356 0.000671169 0.000906115)
(1.91149 0.0124338 0.00915665)
(1.90261 0.00494695 0.00226421)
(1.89379 0.00105288 0.00109721)
(1.89692 0.00253394 0.00232275)
(1.90045 0.0207821 0.00711818)
(1.89354 0.00198349 0.000498803)
(1.90758 0.0112409 0.00580635)
(1.89514 0.00236546 0.00286996)
(1.90232 0.00917825 0.00262418)
(1.8908 0.0194746 -0.00153832)
(1.89543 0.0222961 0.0587901)
(1.87278 -0.0378337 -0.0216319)
(1.92381 -0.0159743 0.0274154)
(1.90104 0.0486035 -0.000176479)
(1.90896 0.0243686 0.0293722)
(1.86759 -0.0189506 -0.0143984)
(1.58375 -0.00604576 0.0150541)
(1.7744 0.00183509 0.0492273)
(1.88928 -0.0115351 0.0437994)
(1.88569 -0.00582169 0.068954)
(1.92122 0.00662956 0.0428162)
(1.91681 -0.0412249 0.0151593)
(1.91619 0.0329975 0.0274524)
(1.94146 0.034339 0.0348242)
(1.98142 0.00812973 0.0600708)
(1.38888 -0.00248462 -0.010158)
(1.55477 -0.0195069 -0.0054989)
(1.73394 -0.0284897 0.0159542)
(1.87141 -0.00125704 -0.000516592)
(1.92777 -0.0375871 0.112453)
(1.932 -0.0328235 0.0892483)
(1.99703 -0.0517984 -0.0245635)
(1.98314 -0.0191792 0.00280519)
(1.88879 0.00321917 -0.00788715)
(1.98626 -0.0280595 -0.0249184)
(1.97923 -0.0174441 0.0323179)
(1.89329 -0.000139011 0.00265308)
(1.90009 -0.0336463 0.0664638)
(1.92511 0.00187637 0.0202425)
(1.91897 0.0129389 0.00371094)
(1.93879 0.00644108 0.00357478)
(1.95159 0.00959036 -0.018683)
(1.95246 0.0205673 0.00624006)
(1.91901 0.0133561 0.00520464)
(1.93303 0.0276571 0.0205766)
(1.9568 0.0234236 0.0200139)
(1.92432 0.02304 0.0163548)
(1.89783 0.00146154 0.0160024)
(1.9073 -7.08449e-05 -4.98693e-05)
(1.89735 -0.00136109 0.00116962)
(1.91056 0.0166013 0.0136675)
(1.90344 0.0254 0.00729046)
(1.91867 0.0308304 0.023221)
(1.91717 0.02626 0.0119079)
(1.89463 0.00044865 0.000875398)
(1.90824 0.00852407 0.0042862)
(1.91611 0.0136173 0.010693)
(1.9046 0.00493742 0.00190607)
(1.89375 0.00119273 0.00115534)
(1.89859 0.000962517 0.000531041)
(1.89548 0.00494304 0.00443886)
(1.90881 0.0196072 0.00565516)
(1.8937 0.00167929 0.000778442)
(1.91248 0.0136858 0.00769954)
(1.90904 0.0104351 0.00486594)
(1.89816 0.00409017 0.00174388)
(1.90485 0.00909099 0.00286174)
(1.89226 0.00351226 -0.00102514)
(1.84902 0.000556725 0.0354987)
(1.86783 -0.0447988 -0.0251493)
(1.91027 -0.0219108 0.0237254)
(1.89928 0.0661982 0.000713668)
(1.9048 0.029631 0.0273312)
(1.88949 0.00624546 -0.00196775)
(1.90946 0.0283052 0.00189681)
(1.78062 -0.0196056 -0.016775)
(0.97602 0.0001966 0.00412099)
(1.35489 -0.00412418 0.0158882)
(1.72749 -0.0133103 0.0352279)
(1.71034 -0.0045601 0.0488893)
(1.88382 -0.00117955 0.0408692)
(1.8525 -0.0361864 0.0289882)
(1.91097 0.0304437 0.019536)
(1.92076 0.0260926 0.0408423)
(1.97062 -0.0135126 0.0730204)
(1.93144 0.0633769 0.0423268)
(1.96866 0.0338084 0.0476332)
(1.98612 -0.0424703 -0.0146098)
(0.927621 -0.00291786 0.000219973)
(1.30523 -0.0161075 -0.00256117)
(1.77389 -0.00101707 -0.00161622)
(1.77452 -0.0324647 0.07226)
(1.87618 -0.0254232 0.0579649)
(1.88041 -0.0429442 0.0450558)
(1.92912 -0.026273 0.0227066)
(1.88367 0.00525187 -0.0147983)
(1.97474 -0.0627072 -0.021448)
(1.98435 -0.039644 0.0498676)
(1.90874 -0.0595597 0.0888814)
(1.97517 -0.0155077 -0.0581685)
(1.99068 -0.0107745 -0.0200679)
(1.96506 0.0188 -0.0181836)
(2.00176 -0.00607636 -0.022104)
(1.88294 0.00955878 0.0205853)
(1.87211 0.0480934 -0.0323105)
(1.91193 0.0103773 -0.00168877)
(1.93492 4.67049e-05 0.0107681)
(1.92309 0.0102141 0.0028163)
(1.94855 0.00728518 -0.00998474)
(1.92927 0.00594234 0.00387494)
(1.94674 0.0138586 -0.0172637)
(1.94951 0.022896 -0.00475558)
(1.9235 0.0129336 0.00542195)
(1.94057 0.0286076 0.0200745)
(1.95818 0.0262705 0.0178476)
(1.93079 0.0236666 0.0182005)
(1.89476 -0.00425942 0.00646451)
(1.90728 0.00153347 0.000165258)
(1.89666 -0.00213907 0.00113893)
(1.90819 0.0228486 0.00770428)
(1.91304 0.0173305 0.0123622)
(1.91237 0.0364721 0.0065981)
(1.9246 0.0393088 0.0343801)
(1.92532 0.0258539 0.0126593)
(1.89422 4.70675e-05 0.000321097)
(1.9039 0.00573325 0.00130072)
(1.91551 0.00957773 0.00343933)
(1.92085 0.014648 0.00677294)
(1.90177 0.00199962 4.67056e-05)
(1.89537 0.00280772 0.000243089)
(1.89545 0.000378731 -0.000798378)
(1.89693 -0.000390052 -0.000261369)
(1.89707 0.0058613 0.00436111)
(1.89892 0.0102517 0.00219018)
(1.91495 0.017884 0.00741968)
(1.90811 0.0156472 0.00510713)
(1.89459 0.00439402 -0.000105739)
(1.91342 0.0140622 0.00756873)
(1.90222 0.00642095 0.00233715)
(1.89708 0.00426809 5.61027e-05)
(1.89588 0.0330134 0.000833841)
(1.58723 -0.0194622 0.00847691)
(1.84419 -0.0586332 -0.032943)
(1.80678 -0.014244 0.020203)
(1.89727 0.0775132 0.0045747)
(1.88329 0.0283901 0.0235062)
(1.88793 -0.0016282 -0.0019818)
(1.9144 0.015285 -0.00545143)
(1.90622 0.0774738 0.00284213)
(1.93681 0.0365444 0.013005)
(1.4122 -0.00478894 -0.00610271)
(0.461495 0.000622696 0.00819157)
(1.20449 -0.0102087 0.0153327)
(1.1853 -0.00359826 0.0205344)
(1.68419 -0.00378945 0.0325935)
(1.59673 -0.0171481 0.0308348)
(1.87703 0.0258479 0.0115669)
(1.86285 0.0146078 0.0414481)
(1.88906 -0.0273356 0.069771)
(1.92766 0.0705755 0.042643)
(1.95649 0.0349842 0.0565768)
(1.96612 -0.0809712 -0.0225982)
(1.93401 0.0153219 0.0132924)
(1.97888 0.01974 0.00620648)
(1.94484 0.0266032 0.0264662)
(1.98832 -0.0215887 0.00777925)
(1.96844 -0.00157464 -0.00556233)
(1.96712 -0.0160971 0.0371742)
(1.97729 -0.0342683 0.0200268)
(0.433407 -0.00422614 0.00107509)
(1.3896 0.000751803 -0.00305793)
(1.30869 -0.0188717 0.0245882)
(1.61356 -0.0105441 0.0209478)
(1.59387 -0.0305089 0.0454035)
(1.77012 -0.021132 0.0261985)
(1.86342 0.00705536 -0.0211454)
(1.84755 -0.0898618 -0.0129629)
(1.95964 -0.0487039 0.0572472)
(1.92984 -0.0694786 0.0926846)
(1.94978 -0.0625331 -0.0723302)
(1.99257 -0.0155194 -0.0201815)
(1.98051 0.0187051 -0.0327625)
(2.01588 -0.0102814 -0.0346627)
(1.86496 0.06177 -0.0469543)
(1.95195 0.00450117 -0.0345877)
(1.95547 -0.0253276 -0.0548225)
(1.98119 -0.0111736 -0.0310546)
(1.94744 -0.0404886 0.01155)
(1.99031 -0.0200838 0.00141963)
(1.8854 0.0280201 -0.00900228)
(1.89047 -0.0417874 -0.0141394)
(1.91196 -0.0106962 0.00164284)
(1.91889 -0.0048905 0.00354999)
(1.92936 0.00859966 -0.00442503)
(1.91234 0.0026615 -0.00167491)
(1.9384 0.00710695 -0.0164889)
(1.93881 0.00470832 -0.00144468)
(1.91836 -0.00367967 0.00323272)
(1.92782 0.0142957 -0.00143877)
(1.95248 0.0234037 0.00299922)
(1.93972 0.0269306 0.0161437)
(1.94194 0.0278581 0.0128662)
(1.90047 0.00281969 -0.0071302)
(1.893 -0.00720283 -0.00634828)
(1.90414 0.000400519 -0.00152478)
(1.9062 -0.00176948 0.000461487)
(1.89641 -0.00196672 -0.000147034)
(1.9258 0.0210326 0.0170528)
(1.92223 0.0202403 0.0164849)
(1.92687 0.0179514 0.00709512)
(1.92361 0.0177379 0.0178891)
(1.94207 0.0427858 0.0313133)
(1.93098 0.0258311 0.0122239)
(1.91713 0.0139957 0.00694402)
(1.89358 -0.000180802 -0.000620568)
(1.90841 0.00320178 -0.00190666)
(1.90156 0.00360341 -0.00126291)
(1.91426 0.00391816 -0.00175079)
(1.92676 0.0100023 0.000640265)
(1.92964 0.0184698 0.00399909)
(1.89377 0.000608035 -0.000335672)
(1.89791 0.00168199 -0.00192979)
(1.89373 -0.000277344 -0.0018191)
(1.90172 -0.00100696 -0.00175763)
(1.89519 -0.000772527 -0.00155206)
(1.89352 0.00425367 0.00231252)
(1.90364 0.0166029 0.00687581)
(1.89764 0.00772983 -0.000997309)
(1.90357 0.0101175 0.00403001)
(1.91396 0.0168297 0.00593979)
(1.89327 0.00136932 -0.000524913)
(1.90138 0.00574669 0.000583683)
(1.89429 0.00133901 -0.000567914)
(1.89337 0.00828866 0.00491023)
(1.01695 -0.00197995 0.000968855)
(1.75948 -0.044088 -0.0253841)
(1.39704 -0.016958 0.00742117)
(1.84588 0.0487171 -0.00341256)
(1.74255 0.022811 0.0131219)
(1.88456 -0.00695769 -0.00157271)
(1.8975 0.0257907 -0.00671631)
(1.91136 0.104586 0.00079518)
(1.93545 0.0392974 0.014822)
(1.96586 0.0167581 0.00160205)
(1.89065 0.00641676 0.00558758)
(0.391531 -0.00355891 0.00401402)
(0.373743 -0.00188467 0.00375241)
(1.11137 -0.000919375 0.0134285)
(0.983832 -0.00739992 0.0149617)
(1.69126 0.0226113 0.00112863)
(1.64579 0.0179 0.0326176)
(1.62881 -0.0195587 0.0538577)
(1.89046 0.065627 0.0280246)
(1.89976 0.0328599 0.059429)
(1.81959 -0.0703064 0.00539607)
(1.92074 0.005864 0.00689445)
(1.95482 0.0246551 -0.00116266)
(1.96578 -0.0405759 0.00111588)
(1.94092 -0.0447865 0.0411767)
(1.94668 -0.0905947 0.0300875)
(1.94111 0.0244836 0.029372)
(1.95096 0.0215846 0.0250555)
(1.9805 0.0488489 0.00974383)
(1.94639 0.0265964 0.0166722)
(1.95175 0.0066633 0.00467674)
(1.97311 0.00873957 0.0276583)
(1.95225 0.0160529 -0.00228939)
(1.94595 0.00370268 -0.000462962)
(1.94731 0.00436286 0.0120748)
(1.96214 -0.031814 0.0298088)
(1.96923 -0.0556745 0.0010686)
(0.509301 -0.00570014 0.00446018)
(0.976316 -0.0013512 0.00412599)
(1.00446 -0.0178991 0.0162589)
(1.30209 -0.00986462 0.014716)
(1.78331 0.00723268 -0.0208294)
(1.53916 -0.0896427 0.00278934)
(1.80062 -0.0412861 0.0531982)
(1.89415 -0.048044 0.0604679)
(1.79052 -0.0846394 -0.0651021)
(1.92105 -0.00759396 -0.0286142)
(1.95616 -0.00912293 -0.00897553)
(1.94797 -0.00818036 -0.0415864)
(1.85417 0.0734792 -0.057794)
(1.93238 -0.0682806 -0.0588366)
(1.9754 -0.020448 -0.0312413)
(1.96423 -0.0663228 0.0116814)
(2.01437 -0.0287053 0.0147647)
(1.88221 -0.042813 -0.020019)
(1.93719 0.00158092 -0.0309199)
(1.95093 0.0214117 -0.0172401)
(1.96265 -0.0213222 -0.036775)
(1.94478 -0.0272605 -0.0530559)
(1.93915 0.00601769 -0.0221804)
(1.97311 -0.0122694 -0.0109177)
(1.9187 0.000566537 -0.0422716)
(1.99416 0.013422 -0.0301317)
(1.92114 0.00538263 0.00364079)
(1.98891 0.00532741 -0.0256881)
(1.88642 -0.0125196 -0.0178823)
(1.89086 -0.0123458 -0.00329869)
(1.91709 -0.00907098 0.00205752)
(1.92851 0.00635305 -0.00404833)
(1.90937 0.00136739 -0.00138917)
(1.91282 -0.00137702 -0.00687496)
(1.92107 0.00167325 -0.00227227)
(1.93404 0.000900585 -0.00202267)
(1.90802 0.00215586 0.00175185)
(1.9202 -0.00304217 0.00232385)
(1.93048 0.016757 -0.00247736)
(1.94156 0.0232602 0.00800837)
(1.94196 0.0268486 0.0110203)
(1.90363 0.00619173 -0.00237342)
(1.9006 0.00370431 -0.0360658)
(1.89924 -0.00273681 -0.0070287)
(1.90739 -0.00159771 -0.00665538)
(1.9051 -0.00204873 -0.000982882)
(1.90843 0.000285259 -0.00119199)
(1.89532 -0.0010045 -0.00624919)
(1.9206 0.0183141 0.0155148)
(1.92716 0.0129702 0.0145074)
(1.92488 0.0199209 0.0208397)
(1.92604 0.0196878 0.0192004)
(1.92489 0.0133304 0.00754552)
(1.91712 0.00960836 0.00462681)
(1.89369 -0.000463465 -0.000654391)
(1.90477 7.62253e-05 -0.00430215)
(1.90712 0.00424753 -0.00117174)
(1.90969 0.000823087 -0.00540338)
(1.91604 0.0050021 0.00241798)
(1.9153 0.000411648 -0.00458326)
(1.92357 0.00337476 -0.00219797)
(1.9287 0.0134612 0.00434861)
(1.93513 0.0155508 -0.00054448)
(1.93388 0.00852852 -0.000589238)
(1.89596 0.000167951 -0.0023323)
(1.89878 -0.000689586 -0.00472047)
(1.8936 -0.000493615 -0.00149112)
(1.90371 -0.00276489 -0.00389426)
(1.89821 -0.0032593 -0.00531069)
(1.89602 0.0311832 0.014805)
(1.92596 0.00122678 0.0273819)
(1.89337 -0.00641237 -0.00560392)
(1.90888 0.0083181 0.0006942)
(1.90884 0.0077788 0.00242032)
(1.91535 0.0126847 0.00683514)
(1.89858 0.00304511 -0.00758332)
(1.33686 -0.0104925 -0.00615961)
(0.461602 -0.00170015 0.00561164)
(1.59166 0.0119706 -0.0127658)
(1.27 0.00572736 0.00391087)
(1.87123 -0.0104154 -0.00403861)
(1.77832 0.0249611 -0.00767241)
(1.9283 0.130594 -0.00277683)
(1.90553 0.0391045 0.00171723)
(1.97418 0.000342327 -0.0145176)
(1.88841 -0.00167052 0.00360787)
(1.96995 0.0397589 0.00264887)
(1.90234 0.0685788 0.00105361)
(0.346983 0.00249266 0.00104307)
(0.290056 -0.00230183 0.00267004)
(1.148 0.0129089 -0.0104931)
(1.055 0.021224 0.00791679)
(1.06754 -0.0120983 0.024232)
(1.67666 0.0480417 0.0101771)
(1.63819 0.0260023 0.0471599)
(1.45971 -0.0345322 0.0277601)
(1.86429 0.00690149 -0.00430191)
(1.84698 0.0375937 0.00729932)
(1.84775 -0.0284596 0.0126338)
(1.83935 -0.0500018 0.0309394)
(1.8309 -0.0891267 0.0137756)
(1.92746 0.0235033 0.0134298)
(1.97496 0.0685583 0.00163909)
(1.94419 -0.0142581 0.0123991)
(1.93038 -0.0571753 0.0346931)
(1.93672 -0.11078 0.00465864)
(1.97223 -0.0143613 0.00272535)
(1.94748 0.0358533 0.0179672)
(1.94706 0.0213635 0.0200561)
(1.96115 0.0361876 0.0293814)
(1.982 -0.00436442 -0.00821733)
(1.99578 0.0145254 0.00522928)
(1.94594 0.0255981 0.0151497)
(1.94867 0.0147187 0.00565358)
(1.95392 0.0124683 0.0132055)
(1.97174 0.00878532 0.0360695)
(1.94845 0.015331 -0.00209459)
(1.94252 0.00927197 -0.00162816)
(1.94356 0.00658608 0.00619324)
(1.94564 0.00267698 0.00863662)
(1.95481 -0.0512634 0.0341607)
(1.96197 -0.0261806 0.0328912)
(1.94295 0.000897532 -0.00259797)
(1.94943 -0.0455873 -0.000620041)
(0.302221 -0.00558883 0.00387801)
(0.502485 -0.00286882 0.00661101)
(1.37696 0.00293213 -0.00583358)
(0.908117 -0.0913152 -0.00632296)
(1.30883 -0.0185248 0.0252544)
(1.6235 -0.00642073 0.0105732)
(1.43596 -0.0848141 -0.016423)
(1.64509 -0.0109082 0.000996242)
(1.79431 -0.0210936 0.0147785)
(1.68829 -0.0192285 0.00297142)
(1.82434 0.0912384 -0.0718427)
(1.79158 -0.0977916 -0.0612113)
(1.88658 -0.0148219 -0.0437535)
(1.9547 -0.0677356 0.010622)
(1.96425 -0.0165325 0.00250002)
(1.88205 -0.0364693 -0.0324182)
(1.96101 -0.0313531 -0.0266968)
(1.92011 -0.0691616 -0.0584877)
(1.98926 -0.0153427 0.00841224)
(1.91119 0.00861656 -0.0602176)
(2.01766 0.012576 -0.0488015)
(2.00962 0.00883883 -0.0241594)
(1.88714 -0.00660761 -0.00413768)
(1.93299 0.000985491 -0.0214882)
(1.93332 0.00873699 -0.0248175)
(1.94475 0.020486 -0.0152363)
(1.95334 -0.00885731 -0.0312102)
(1.92915 -0.00119873 -0.0363398)
(1.9363 -0.0236052 -0.0164619)
(1.93426 0.0005114 -0.00750473)
(1.92266 -0.00215057 -0.0017404)
(1.97074 -0.0023807 -0.0144498)
(1.95528 -0.0602254 -0.0111538)
(1.91717 0.00486164 -0.0112226)
(1.97902 -0.0262583 -0.000972687)
(1.91826 0.00206666 0.0024622)
(1.92334 0.00330946 -0.00659699)
(1.98436 -0.0138722 0.0109522)
(1.89232 -0.00505748 -0.00391731)
(1.89239 -0.0108573 -0.00707892)
(1.91443 -0.0841753 -0.00697956)
(1.90595 0.000345869 -0.00130364)
(1.93234 0.0129455 -0.00592442)
(1.93248 0.00515174 -0.00687773)
(1.93197 0.0014939 -0.00282885)
(1.91124 -0.000392845 -0.00577381)
(1.91244 0.00251393 -0.00224049)
(1.91369 -0.00254068 -0.00881415)
(1.91393 -0.00759464 -0.0110168)
(1.92149 -0.00303976 -0.00770817)
(1.91642 0.00164531 -0.00247326)
(1.92815 0.000145617 -0.00251668)
(1.91213 -0.000681959 -0.000353602)
(1.92145 -0.0139488 -0.0118473)
(1.91373 -0.0157903 -0.0247793)
(1.90612 -0.0192945 0.000255606)
(1.90333 -0.00524966 -0.00825105)
(1.9097 -0.00353239 -0.00921513)
(1.90354 -0.00361088 -0.00256683)
(1.90813 -0.000692765 -0.00502591)
(1.89555 -0.00360583 -0.00358769)
(1.9222 0.0115591 0.0173313)
(1.92611 0.0150669 0.0156473)
(1.92342 0.0142812 0.0159641)
(1.93607 0.0296859 0.0134979)
(1.92615 0.016032 0.00777513)
(1.9227 0.0123764 0.0064351)
(1.89435 -0.0019309 -0.00265076)
(1.90317 -0.00260557 -0.00607771)
(1.90808 0.00286433 -0.00495225)
(1.91269 0.00021268 -0.00545646)
(1.90494 -0.00061848 -0.00576111)
(1.92257 0.0084364 0.0037989)
(1.9127 0.00644885 -0.0010586)
(1.91205 0.00674045 0.00466394)
(1.91703 -0.00436047 -0.00722567)
(1.92171 0.000174482 -0.00416831)
(1.92102 0.00152766 -0.00515582)
(1.92599 0.00779967 0.00262337)
(1.92488 -0.000114621 -0.00393638)
(1.93163 0.00207637 -0.00264902)
(1.92944 0.0153198 0.00584801)
(1.93624 0.0134341 0.00478831)
(1.93707 0.0150635 -0.00176974)
(1.94033 0.0122444 0.00450079)
(1.93711 0.0142078 -0.00197753)
(1.93945 0.006579 -0.000247443)
(1.89379 0.00026152 -0.00107676)
(1.90047 0.0016856 -0.00526729)
(1.89469 -0.00171843 -0.00538777)
(1.89564 -0.00385849 -0.00279633)
(1.88704 -0.0218751 0.0121582)
(1.95477 3.98959e-05 0.0115806)
(1.91899 0.00367223 0.0156949)
(1.8918 -0.0130364 -0.00339824)
(1.89957 -0.00190067 -0.00976694)
(1.90971 0.00792852 0.00169656)
(1.90394 -0.00061404 -0.00972347)
(0.988351 0.000923043 -0.00175278)
(0.430288 0.000312811 0.000636855)
(1.78919 -0.01011 -0.00323301)
(1.35993 0.00927239 -0.00941633)
(1.89066 0.100973 -0.00510089)
(1.73058 0.038093 -0.00327481)
(1.95871 0.0279345 -0.0198467)
(1.8847 -0.0069818 0.00301389)
(1.9904 0.0461051 -0.012247)
(1.89924 0.0804117 0.00155266)
(1.87384 -0.0395186 0.0242225)
(0.35373 0.0105135 -0.0149992)
(0.329103 0.015266 -0.00644434)
(0.38804 -0.0049843 0.00527313)
(1.11874 0.0231147 -0.00339192)
(1.05343 0.0175759 0.0265703)
(0.809645 -0.0146726 0.0177858)
(1.6089 0.0188845 -0.00565557)
(1.51724 0.0343243 0.00300893)
(1.46951 0.000561125 0.0302857)
(1.53103 -0.0276656 0.0326524)
(1.52208 -0.0661758 0.0188041)
(1.8522 -0.0237926 -0.00385358)
(1.88047 0.0627394 -0.00462927)
(1.84552 -0.0146427 0.0122525)
(1.79189 -0.0575656 0.0247204)
(1.77955 -0.100061 -0.0019534)
(1.98282 -0.0370512 -0.0201736)
(1.94983 0.0672878 -0.00504957)
(1.96551 0.00789857 -0.0235813)
(1.9751 0.031054 -0.00533128)
(1.95426 -0.00302356 0.039167)
(1.91173 -0.0929866 0.0366707)
(1.92235 -0.0447916 0.0381985)
(1.90424 -0.0989257 0.0123949)
(1.9293 0.00148693 0.0131062)
(1.95239 -0.00680733 -0.00285994)
(1.9427 0.00124441 -0.0024278)
(1.94357 0.029784 0.0109162)
(1.97034 0.0143707 0.0227033)
(1.95066 0.0198718 0.00915959)
(1.98155 0.0372377 -0.00619506)
(1.98129 -0.0344374 -0.0206243)
(1.94469 0.0121901 0.00488496)
(1.94803 0.00650088 0.0106874)
(1.94966 0.0102088 0.0169525)
(1.97925 0.00522548 0.0314246)
(1.94491 0.00752184 0.00632736)
(1.94299 0.00605099 0.00916831)
(1.94558 0.00443745 0.00776616)
(1.96666 -0.0405525 0.0369422)
(1.95138 0.00321888 0.013851)
(1.96615 -0.0234507 0.0410872)
(1.94376 0.00413809 -0.00113502)
(1.94144 -0.004012 -0.00212443)
(1.96074 -0.0452183 0.00494156)
(0.253735 -0.0641686 -0.00653384)
(0.502325 -0.00411764 0.00548177)
(0.993706 0.000551185 0.00169585)
(0.76347 -0.0737842 -0.00551195)
(0.996414 -0.000719562 0.00624342)
(1.31514 -0.00568573 0.00473556)
(1.0627 -0.0133047 0.0111873)
(1.71569 0.0799823 -0.0625156)
(1.4678 -0.0974911 -0.0323195)
(1.56935 -0.0145938 -0.0170454)
(1.81125 -0.049938 0.00879482)
(1.73071 -0.0194872 0.00685034)
(1.81897 -0.00244376 -0.0440262)
(1.87785 -0.0165872 -0.0268723)
(1.77359 -0.0975746 -0.0629554)
(1.91057 -0.0026459 0.00870223)
(1.88291 -0.000141273 -0.0526289)
(1.95691 0.0126153 -0.0472195)
(1.93869 0.02874 -0.0392745)
(1.88423 -0.000130315 -0.00335989)
(1.95074 -0.0138549 -0.0277121)
(1.92888 -0.0412912 -0.00524122)
(1.97879 0.00313071 -0.00913581)
(1.96789 -0.0937051 -0.00699198)
(2.00951 -0.0415121 0.0153245)
(2.01438 -0.0246953 0.0326286)
(1.91174 -0.0989094 -0.0071232)
(1.92799 0.00419506 -0.0211963)
(1.94065 0.0159355 -0.0178251)
(1.9351 0.0163477 -0.00917562)
(1.92965 0.00394946 -0.0212878)
(1.96694 -0.00877893 0.00260403)
(1.92469 0.00219535 -0.0189708)
(1.93556 0.0111437 -0.0256625)
(1.94561 -0.0268722 -0.0143457)
(1.93144 -0.00204279 -0.00839621)
(1.92214 -0.00362214 -0.00389028)
(1.9283 -0.00284573 -0.00406739)
(1.98416 -0.00864372 0.00523649)
(1.98448 0.00426836 -0.00162426)
(1.9795 0.0385331 -0.0267505)
(1.90527 0.00110084 -0.0115247)
(1.90098 -0.0019812 -0.000783618)
(1.9836 0.0261254 -0.0127273)
(1.91034 -0.000267072 -0.00812124)
(1.91362 -0.012365 -0.00474631)
(1.99219 0.00938266 -0.0144909)
(1.90111 -0.040184 -0.00522679)
(1.89138 -0.0100279 -0.00699547)
(1.93327 0.00992564 -0.00607122)
(1.93469 0.0022405 -0.00514902)
(1.9345 -0.000268407 -0.00787602)
(1.91718 -0.000703311 -0.00202741)
(1.9332 -0.000789544 -0.00592088)
(1.91477 0.00151827 -0.00568017)
(1.90938 -0.00123791 -0.00557667)
(1.91581 0.00113439 -0.00399658)
(1.91277 -1.95619e-06 -0.00202113)
(1.91795 0.00021141 -0.0100752)
(1.91234 -0.00270089 -0.00885836)
(1.91758 -0.0094044 -0.0116771)
(1.91955 -0.0084692 -0.0101348)
(1.91632 -0.0119924 -0.0132915)
(1.90837 -0.00797602 -0.0105203)
(1.9204 -0.00131091 -0.0101824)
(1.9228 -0.00849733 -0.0101774)
(1.92893 -0.00497038 -0.00779973)
(1.91713 0.00128653 -0.00555191)
(1.91897 -0.00236921 -0.00374741)
(1.924 -0.00230437 -0.00352799)
(1.93494 0.000221484 -0.0018589)
(1.92355 0.0148886 -0.0180893)
(1.92798 -0.00709878 -0.00552266)
(1.92989 -0.011223 -0.00284859)
(1.90915 -0.0303216 0.00517796)
(1.89681 -0.00275178 -0.00897675)
(1.90156 -0.00461166 -0.0120069)
(1.92223 0.0130127 0.0127754)
(1.93085 0.0187158 0.0114029)
(1.89655 -0.00524939 -0.00562276)
(1.92162 0.00109904 -0.00620819)
(1.91426 -0.00387782 -0.0080597)
(1.91122 -0.00334265 -0.00866625)
(1.92038 0.00712206 0.00913875)
(1.92067 0.00229976 -0.00299176)
(1.9182 0.000628763 0.00621989)
(1.91111 0.00693202 0.00141402)
(1.91935 -0.00430747 -0.0072242)
(1.93173 0.00606327 -0.00392783)
(1.92212 -0.0025718 -0.00522479)
(1.92761 0.0061328 -0.00537294)
(1.93172 0.00708543 0.00484957)
(1.9264 0.00785962 0.0088065)
(1.93406 0.00509247 -0.00355004)
(1.93084 -0.00203954 -0.00271587)
(1.92388 -0.00359615 -0.005927)
(1.93408 0.0055259 0.00364652)
(1.93356 -0.00144732 -0.00270392)
(1.93769 0.00122101 -0.00253939)
(1.93342 0.0151192 0.00719014)
(1.93734 0.0136878 0.00648065)
(1.93964 0.0117783 0.00527873)
(1.94393 0.00947542 0.00356409)
(1.93495 0.00832611 -0.00613436)
(1.93929 0.0122477 -0.000405525)
(1.94395 0.00815216 0.00290532)
(1.94057 0.0106375 -0.000480571)
(1.9449 0.00737963 -8.72052e-05)
(1.89813 0.00378677 -0.0116325)
(1.91091 0.00134325 -0.00929751)
(1.89288 -0.00129032 0.00165508)
(1.95614 -0.00235085 0.0223272)
(1.95248 0.000399955 0.0085573)
(1.92075 -0.00129574 0.0141705)
(1.89744 0.0138867 -0.0298246)
(1.9238 0.0233948 -0.0274574)
(1.92237 0.00127588 -0.00483211)
(1.36541 -0.00424204 -0.000732659)
(0.454341 0.00623111 -0.00182906)
(1.6354 0.0437053 -0.00474909)
(1.20826 0.0203237 -0.00408175)
(1.81584 0.052936 -0.0122289)
(1.868 -0.0106134 0.00365361)
(1.95546 0.0465546 -0.018934)
(1.91122 0.0775701 0.00107809)
(1.86777 -0.0527352 0.0385696)
(1.90776 0.0420832 -0.0725999)
(0.392002 0.00372252 -0.00501477)
(0.393238 0.0040769 0.00969231)
(0.228534 -0.00349244 0.00600419)
(0.994523 0.0126249 -0.0036204)
(0.879338 0.0177988 -0.00278004)
(0.805285 0.00709785 0.0209531)
(0.962847 -0.0158049 0.020385)
(0.958982 -0.0478346 0.0089864)
(1.64924 0.0010558 -0.00989973)
(1.57606 0.0478607 -0.00657044)
(1.5179 0.00349269 0.0177252)
(1.41388 -0.0329143 0.0258515)
(1.39716 -0.0692919 0.00992952)
(1.93361 -0.0643345 -0.0270863)
(1.89643 0.0292965 -0.0152323)
(1.85871 0.00292521 -0.0265489)
(1.82287 0.0366695 -0.0104601)
(1.83075 -0.00980777 0.0229257)
(1.78206 -0.0880737 0.0175274)
(1.76279 -0.0482155 0.0255119)
(1.76247 -0.113015 0.0153872)
(1.94943 -0.00351394 -0.024309)
(1.929 -0.00789735 -0.0425659)
(1.97978 0.0586709 -0.0150906)
(1.94243 -0.0307257 -0.0323355)
(1.95206 -0.00311664 0.0328555)
(1.92963 -0.0818059 0.0480673)
(1.91863 -0.0434769 0.0477647)
(1.9307 -0.0962629 0.0198536)
(1.92654 -9.1153e-05 0.0125361)
(1.94991 -0.00622338 0.0118817)
(1.92641 0.0123135 0.0101337)
(1.94005 0.0416184 -0.00644317)
(1.94213 0.0180497 0.0109405)
(1.97999 0.00891784 0.0208225)
(1.94656 0.0174006 0.00874384)
(1.94617 0.0283226 0.013012)
(1.99862 -0.0166732 -0.0023625)
(1.98085 -0.0161483 0.0042843)
(1.97819 -0.00959826 0.0116106)
(1.9792 -0.000916308 -0.00685652)
(1.96678 -0.00756516 0.0106997)
(1.95048 -0.00159102 0.0127735)
(1.94943 0.0090225 0.0101966)
(1.95155 0.00970153 0.019067)
(1.95453 0.00435503 0.0188811)
(1.97842 -0.00292162 0.0314746)
(1.94558 0.00719498 0.00605586)
(1.94327 0.00574995 0.00533983)
(1.94827 0.00943482 0.0165817)
(1.97243 -0.0436022 0.0340071)
(1.95873 -0.0536316 -0.00247484)
(1.95076 0.00452117 0.0124447)
(1.95562 0.00868771 0.017333)
(1.97422 -0.0190413 0.0464199)
(1.9453 0.0148724 -0.0114957)
(1.94286 0.00848333 -0.00256698)
(1.93983 0.00307809 -0.00718083)
(1.9422 -9.08326e-05 -0.00293133)
(0.216028 -0.0279609 -5.57639e-05)
(0.292436 0.00441611 0.00268643)
(0.508376 -0.0015738 0.00325739)
(0.315357 -0.0039679 0.00394823)
(1.32058 0.0185235 -0.0135914)
(0.861031 -0.0891054 -0.0208358)
(0.878092 -0.0100676 -0.0103264)
(1.34958 -0.0135352 -0.0044071)
(1.1616 -0.00891956 0.00315635)
(1.53159 0.0313174 -0.043551)
(1.5628 -0.014079 -0.0150968)
(1.42307 -0.0971949 -0.0358706)
(1.62503 0.00118373 0.000616848)
(1.73095 0.00876161 -0.0469879)
(1.69455 -0.0148405 -0.0125514)
(1.62331 0.0106612 -0.017186)
(1.87161 0.00233643 -0.00219635)
(1.86813 -0.0100297 -0.0273819)
(1.82693 -0.0532427 7.47671e-05)
(1.86852 0.0126753 -0.0052111)
(1.95704 -0.108074 0.00254887)
(1.97181 -0.0273066 0.0124045)
(1.95325 -0.0151727 0.0316639)
(1.92037 -0.093475 -0.00585139)
(1.96828 -0.0126683 0.0146587)
(1.92491 -0.0473885 -0.00923035)
(2.00051 -0.00496939 0.0325512)
(1.99288 0.0169321 -0.0135182)
(1.99654 0.0581952 -0.03333)
(2.01725 0.0333057 -0.00932768)
(2.01332 0.0237229 0.00499986)
(1.88856 -0.00435342 -0.0068409)
(1.93133 -0.000192986 -0.0131083)
(1.9304 -0.00381527 -0.00463789)
(1.97049 0.00215042 -0.00953502)
(1.92719 0.00363434 -0.0132161)
(1.93669 0.0112397 -0.0220433)
(1.93374 0.00377674 -0.0103454)
(1.9587 -0.0197958 0.0146668)
(1.91667 -0.010661 -0.00522281)
(1.93006 -0.00216149 -0.00693613)
(1.92687 -0.0128796 0.000794154)
(1.98287 0.0108023 -0.00704333)
(1.94022 -0.00452629 -0.0114131)
(1.97307 -0.0652598 -0.0181394)
(1.97641 -0.0171968 -0.00426908)
(1.90552 -0.00439885 -0.000826208)
(1.90804 0.0013603 -0.00851465)
(1.97474 -0.0296474 0.00828576)
(1.91247 -0.00172651 -0.00648891)
(1.91016 -0.000171132 -0.00781611)
(1.92552 -0.00684278 -0.00802905)
(1.99177 -0.0247447 0.0144345)
(1.89296 -0.0113406 0.00158074)
(1.89546 -0.0695037 0.000633302)
(1.93754 0.0010762 -0.0066292)
(1.93381 -0.0011501 -0.00734404)
(1.9118 -0.000492501 -0.00598017)
(1.91703 -0.00364794 -0.00574983)
(1.93177 0.00610345 -0.00165732)
(1.92501 -0.00776366 -0.00590212)
(1.92984 0.00393729 -0.002558)
(1.92084 -0.00674766 -0.0115947)
(1.92104 -0.0023481 -0.0117549)
(1.91824 -0.0104245 -0.0121956)
(1.91956 -0.0106811 -0.0129156)
(1.91976 -0.0125761 -0.0132321)
(1.91441 -0.0130259 -0.012229)
(1.90732 -0.00512743 -0.0158146)
(1.9235 -0.00366713 -0.0103464)
(1.92118 -0.00730084 -0.0110853)
(1.92776 -0.00948894 -0.0097658)
(1.9224 -0.0100761 -0.0118047)
(1.92814 -0.00487532 -0.0103183)
(1.9308 -0.00928144 -0.00978209)
(1.93632 -0.00557332 -0.00756813)
(1.92077 -0.000174406 -0.00630076)
(1.91262 -0.00326179 -0.00782734)
(1.92125 -0.00341693 -0.00563322)
(1.92467 -0.00403107 -0.00645743)