/*--------------------------------*- C++ -*----------------------------------*\
| =========                 |                                                 |
| \\      /  F ield         | OpenFOAM: The Open Source CFD Toolbox           |
|  \\    /   O peration     | Version:  2112                                  |
|   \\  /    A nd           | Website:  www.openfoam.com                      |
|    \\/     M anipulation  |                                                 |
\*---------------------------------------------------------------------------*/
FoamFile
{
    version     2.0;
    format      ascii;
    arch        "LSB;label=32;scalar=64";
    class       volVectorField;
    location    "0";
    object      U;
}
// * * * * * * * * * * * * * * * * * * * * * * * * * * * * * * * * * * * * * //

dimensions      [0 1 -1 0 0 0 0];

internalField   uniform (0 0 0);

boundaryField
{
    face1
    {
        type            flowRateInletVelocity;
        volumetricFlowRate constant 0.000175;
        value           nonuniform List<vector> 
138
(
(1.893440235 0 0)
(1.893440235 0 0)
(1.893440235 0 0)
(1.893440235 0 0)
(1.893440235 0 0)
(1.893440235 0 0)
(1.893440235 0 0)
(1.893440235 0 0)
(1.893440235 0 0)
(1.893440235 0 0)
(1.893440235 0 0)
(1.893440235 0 0)
(1.893440235 0 0)
(1.893440235 0 0)
(1.893440235 0 0)
(1.893440235 0 0)
(1.893440235 0 0)
(1.893440235 0 0)
(1.893440235 0 0)
(1.893440235 0 0)
(1.893440235 0 0)
(1.893440235 0 0)
(1.893440235 0 0)
(1.893440235 0 0)
(1.893440235 0 0)
(1.893440235 0 0)
(1.893440235 0 0)
(1.893440235 0 0)
(1.893440235 0 0)
(1.893440235 0 0)
(1.893440235 0 0)
(1.893440235 0 0)
(1.893440235 0 0)
(1.893440235 0 0)
(1.893440235 0 0)
(1.893440235 0 0)
(1.893440235 0 0)
(1.893440235 0 0)
(1.893440235 0 0)
(1.893440235 0 0)
(1.893440235 0 0)
(1.893440235 0 0)
(1.893440235 1.24925950891e-12 2.27214799708e-13)
(1.893440235 0 0)
(1.893440235 0 0)
(1.893440235 0 0)
(1.893440235 0 0)
(1.893440235 0 0)
(1.893440235 1.24925950891e-12 -2.4431944359e-13)
(1.893440235 0 0)
(1.893440235 0 0)
(1.893440235 0 0)
(1.893440235 0 0)
(1.893440235 0 0)
(1.893440235 4.29770458482e-13 2.52850028977e-12)
(1.893440235 0 0)
(1.893440235 0 0)
(1.893440235 0 0)
(1.893440235 0 0)
(1.893440235 0 0)
(1.893440235 1.41291169751e-12 2.13703246006e-12)
(1.893440235 0 0)
(1.893440235 0 0)
(1.893440235 0 0)
(1.893440235 0 0)
(1.893440235 0 0)
(1.893440235 -1.45736691933e-12 -2.09550327939e-12)
(1.893440235 0 0)
(1.893440235 0 0)
(1.893440235 0 0)
(1.893440235 0 0)
(1.893440235 0 0)
(1.893440235 -2.17780811239e-12 1.39457102001e-12)
(1.893440235 0 0)
(1.893440235 0 0)
(1.893440235 0 0)
(1.893440235 0 0)
(1.893440235 0 0)
(1.893440235 -2.50496759896e-12 -4.37137397376e-13)
(1.893440235 0 0)
(1.893440235 0 0)
(1.893440235 0 0)
(1.893440235 0 0)
(1.893440235 0 0)
(1.893440235 2.2038278275e-12 1.33973105188e-12)
(1.893440235 0 0)
(1.893440235 0 0)
(1.893440235 0 0)
(1.893440235 0 0)
(1.893440235 0 0)
(1.893440235 -1.41264548648e-12 2.11470424306e-12)
(1.893440235 0 0)
(1.893440235 0 0)
(1.893440235 0 0)
(1.893440235 0 0)
(1.893440235 0 0)
(1.893440235 1.2959891522e-12 -2.19329833908e-12)
(1.893440235 0 0)
(1.893440235 0 0)
(1.893440235 0 0)
(1.893440235 0 0)
(1.893440235 0 0)
(1.893440235 2.13962584195e-12 -1.46825840337e-12)
(1.893440235 0 0)
(1.893440235 0 0)
(1.893440235 0 0)
(1.893440235 0 0)
(1.893440235 0 0)
(1.893440235 -5.16982704781e-13 -2.51657741184e-12)
(1.893440235 0 0)
(1.893440235 0 0)
(1.893440235 0 0)
(1.893440235 0 0)
(1.893440235 0 0)
(1.893440235 -2.1807272966e-12 -1.35905014338e-12)
(1.893440235 0 0)
(1.893440235 0 0)
(1.893440235 0 0)
(1.893440235 0 0)
(1.893440235 0 0)
(1.893440235 -5.88504177501e-13 2.48548926376e-12)
(1.893440235 0 0)
(1.893440235 0 0)
(1.893440235 0 0)
(1.893440235 0 0)
(1.893440235 0 0)
(1.893440235 4.72195231078e-13 -2.50097453234e-12)
(1.893440235 0 0)
(1.893440235 0 0)
(1.893440235 0 0)
(1.893440235 0 0)
(1.893440235 0 0)
(1.893440235 -2.51111785339e-12 4.00194268334e-13)
(1.893440235 0 0)
(1.893440235 0 0)
(1.893440235 0 0)
(1.893440235 0 0)
(1.893440235 0 0)
)
;
    }
    face2
    {
        type            inletOutlet;
        inletValue      uniform (0 0 0);
        value           uniform (0 0 0);
    }
    face3
    {
        type            movingWallVelocity;
        value           uniform (0 0 0);
    }
    face4
    {
        type            movingWallVelocity;
        value           uniform (0 0 0);
    }
    face5
    {
        type            movingWallVelocity;
        value           uniform (0 0 0);
    }
    face6
    {
        type            movingWallVelocity;
        value           uniform (0 0 0);
    }
    face7
    {
        type            movingWallVelocity;
        value           uniform (0 0 0);
    }
}


// ************************************************************************* //
