# vtk DataFile Version 2.0
DGS printing
ASCII
DATASET UNSTRUCTURED_GRID
POINTS  48  floats
21.28190 21.81019 19.37600 21.22681 21.81090 19.37600 21.22610 21.75581 19.37600 
21.28119 21.75510 19.37600 21.28190 21.81019 20.81797 21.22681 21.81090 20.81797 
21.22610 21.75581 20.81797 21.28119 21.75510 20.81797 21.25450 21.82196 19.37600 
21.21504 21.78350 19.37600 21.25350 21.74404 19.37600 21.29296 21.78250 19.37600 
21.25450 21.82196 20.81797 21.21504 21.78350 20.81797 21.25350 21.74404 20.81797 
21.29296 21.78250 20.81797 21.28190 21.81019 20.09698 21.22681 21.81090 20.09698 
21.22610 21.75581 20.09698 21.28119 21.75510 20.09698 21.29296 21.78250 20.09698 
21.21504 21.78350 20.09698 21.25450 21.82196 20.09698 21.25350 21.74404 20.09698 
21.28180 22.81030 19.37600 21.22670 22.81080 19.37600 21.22620 22.75570 19.37600 
21.28130 22.75520 19.37600 21.28180 22.81030 20.81797 21.22670 22.81080 20.81797 
21.22620 22.75570 20.81797 21.28130 22.75520 20.81797 21.25436 22.82196 19.37600 
21.21504 22.78336 19.37600 21.25364 22.74404 19.37600 21.29296 22.78264 19.37600 
21.25436 22.82196 20.81797 21.21504 22.78336 20.81797 21.25364 22.74404 20.81797 
21.29296 22.78264 20.81797 21.28180 22.81030 20.09698 21.22670 22.81080 20.09698 
21.22620 22.75570 20.09698 21.28130 22.75520 20.09698 21.29296 22.78264 20.09698 
21.21504 22.78336 20.09698 21.25436 22.82196 20.09698 21.25364 22.74404 20.09698 
CELLS  2   50
24 0 1 2 3 4 5 6 7 8 9 10 11 12 13 14 15 16 17 18 19 20 21 22 23
24 24 25 26 27 28 29 30 31 32 33 34 35 36 37 38 39 40 41 42 43 44 45 46 47
CELL_TYPES  2 
33
33
CELL_DATA  2 
SCALARS average_vol_activity_bq_m3 double 1 
LOOKUP_TABLE default
71.53386
82.88287
SCALARS total_activity_bq double 1 
LOOKUP_TABLE default
0.49188
0.56991
SCALARS mc_error double 1 
LOOKUP_TABLE default
0.00000
0.00000
