# vtk DataFile Version 2.0
DGS printing
ASCII
DATASET UNSTRUCTURED_GRID
POINTS  48  floats
21.26327 21.82084 19.37600 21.21616 21.79227 19.37600 21.24473 21.74516 19.37600 
21.29184 21.77373 19.37600 21.26327 21.82084 20.81797 21.21616 21.79227 20.81797 
21.24473 21.74516 20.81797 21.29184 21.77373 20.81797 21.23380 21.81631 19.37600 
21.22069 21.76280 19.37600 21.27420 21.74969 19.37600 21.28731 21.80320 19.37600 
21.23380 21.81631 20.81797 21.22069 21.76280 20.81797 21.27420 21.74969 20.81797 
21.28731 21.80320 20.81797 21.26327 21.82084 20.09698 21.21616 21.79227 20.09698 
21.24473 21.74516 20.09698 21.29184 21.77373 20.09698 21.28731 21.80320 20.09698 
21.22069 21.76280 20.09698 21.23380 21.81631 20.09698 21.27420 21.74969 20.09698 
21.29219 22.79070 19.37600 21.24630 22.82119 19.37600 21.21581 22.77530 19.37600 
21.26170 22.74481 19.37600 21.29219 22.79070 20.81797 21.24630 22.82119 20.81797 
21.21581 22.77530 20.81797 21.26170 22.74481 20.81797 21.27556 22.81545 19.37600 
21.22155 22.80456 19.37600 21.23244 22.75055 19.37600 21.28645 22.76144 19.37600 
21.27556 22.81545 20.81797 21.22155 22.80456 20.81797 21.23244 22.75055 20.81797 
21.28645 22.76144 20.81797 21.29219 22.79070 20.09698 21.24630 22.82119 20.09698 
21.21581 22.77530 20.09698 21.26170 22.74481 20.09698 21.28645 22.76144 20.09698 
21.22155 22.80456 20.09698 21.27556 22.81545 20.09698 21.23244 22.75055 20.09698 
CELLS  2   50
24 0 1 2 3 4 5 6 7 8 9 10 11 12 13 14 15 16 17 18 19 20 21 22 23
24 24 25 26 27 28 29 30 31 32 33 34 35 36 37 38 39 40 41 42 43 44 45 46 47
CELL_TYPES  2 
33
33
CELL_DATA  2 
SCALARS average_vol_activity_bq_m3 double 1 
LOOKUP_TABLE default
71.53386
82.88287
SCALARS total_activity_bq double 1 
LOOKUP_TABLE default
0.49188
0.56991
SCALARS mc_error double 1 
LOOKUP_TABLE default
0.00000
0.00000
