/*--------------------------------*- C++ -*----------------------------------*\
  =========                 |
  \\      /  F ield         | OpenFOAM: The Open Source CFD Toolbox
   \\    /   O peration     | Website:  https://openfoam.org
    \\  /    A nd           | Version:  12
     \\/     M anipulation  |
\*---------------------------------------------------------------------------*/
FoamFile
{
    format      ascii;
    class       volScalarField;
    location    "32";
    object      Dturbulent;
}
// * * * * * * * * * * * * * * * * * * * * * * * * * * * * * * * * * * * * * //

dimensions      [0 2 -1 0 0 0 0];

internalField   nonuniform List<scalar> 
143879
(
1.22401e-07
3.45407e-07
2.17696e-07
8.82788e-08
1.7161e-07
2.37499e-07
3.35104e-07
2.70445e-07
1.31983e-07
3.00103e-07
7.29156e-08
7.90639e-08
1.45744e-07
2.29607e-07
3.57737e-07
5.99701e-07
3.38826e-07
6.77645e-07
3.07074e-07
1.56258e-07
3.41602e-07
1.06179e-07
2.01635e-07
3.43563e-07
9.70457e-07
1.32684e-07
1.18334e-07
2.23117e-07
2.2416e-07
3.76258e-07
2.25656e-07
3.34529e-07
2.06114e-07
7.55242e-07
9.61214e-07
6.03696e-07
9.7287e-07
1.36579e-07
1.75042e-07
4.42461e-07
1.39283e-07
2.45016e-07
2.98667e-07
3.13434e-07
1.36949e-06
4.36011e-07
3.32505e-07
6.44474e-07
3.00532e-07
7.17273e-07
1.44354e-06
2.38913e-07
5.08854e-07
3.57726e-07
2.01206e-07
4.59954e-07
1.8395e-07
4.89137e-07
3.93963e-07
1.42662e-07
4.68939e-07
5.68493e-07
4.45813e-07
5.25648e-07
4.06814e-07
9.55518e-07
9.94426e-07
1.28632e-06
8.03514e-07
1.26652e-06
2.61259e-07
1.00074e-07
1.20611e-07
2.64813e-07
4.11163e-07
6.77567e-07
6.95014e-07
3.62348e-07
5.06975e-07
3.05516e-07
2.72875e-07
3.85635e-06
4.11381e-06
9.66769e-07
5.66522e-07
3.48702e-07
8.36071e-07
4.82312e-07
2.34303e-06
1.56449e-06
1.79516e-06
1.40229e-06
2.94645e-07
5.16906e-07
5.08456e-07
4.62643e-07
3.66464e-07
1.09361e-07
3.4851e-07
5.37546e-07
4.59371e-07
6.64291e-07
2.70001e-07
4.27204e-07
2.13271e-06
4.84671e-07
4.36762e-07
7.38078e-07
2.32752e-07
6.01329e-07
6.48635e-07
8.36681e-07
4.27974e-07
8.26091e-07
3.97788e-07
7.65816e-07
1.33376e-06
1.45448e-06
1.44752e-06
1.5498e-06
1.31571e-06
1.80134e-06
3.75199e-07
1.60708e-07
5.99407e-07
8.75608e-08
6.5646e-07
4.08603e-07
3.37441e-07
5.70572e-07
6.25464e-07
1.27412e-06
1.62342e-06
5.21382e-07
6.30828e-07
4.41736e-07
2.75215e-07
6.33045e-07
4.50984e-06
3.11452e-06
4.76203e-06
4.53511e-06
4.34137e-06
1.86919e-06
1.16337e-06
7.55973e-07
5.23053e-07
9.58568e-07
6.07175e-07
1.3999e-06
1.75712e-06
1.40211e-06
2.09932e-06
2.81991e-07
6.89206e-07
4.93643e-07
8.59413e-07
4.56559e-07
5.01747e-07
8.43927e-07
1.68039e-07
9.39786e-07
5.64456e-07
8.45738e-07
5.26593e-07
8.15266e-07
8.83446e-07
5.51924e-07
5.67766e-07
9.98204e-07
5.02887e-07
4.57186e-07
1.0283e-06
4.95116e-07
1.12893e-06
5.17003e-07
5.89272e-07
1.03467e-06
2.27537e-07
4.76194e-07
9.55719e-07
1.05752e-06
8.94809e-07
1.04484e-06
8.73652e-07
9.2481e-07
4.05846e-07
7.47784e-07
9.74965e-07
1.40596e-06
1.57195e-06
1.65649e-06
1.79864e-06
1.80699e-06
1.31647e-06
1.95434e-06
2.73559e-07
1.97591e-07
6.69548e-07
1.34202e-07
2.95421e-07
7.45339e-07
1.29042e-06
8.68559e-07
4.77332e-07
7.85487e-07
6.33703e-07
6.43778e-07
9.26043e-07
4.54374e-06
1.56672e-06
3.4341e-06
1.60195e-06
6.87411e-07
8.41742e-07
9.83666e-07
6.02341e-07
6.56337e-07
9.29797e-07
2.93127e-06
3.98479e-06
6.0449e-06
5.4108e-06
2.02159e-06
6.07342e-06
6.33092e-06
2.92694e-06
1.62636e-06
1.52831e-06
6.51807e-07
9.23966e-07
8.12287e-07
1.24576e-06
1.09235e-06
1.78782e-06
1.92755e-06
1.10376e-06
1.46525e-06
2.03468e-06
1.9192e-06
6.49972e-07
6.13404e-07
9.35813e-07
4.80312e-07
5.35098e-07
5.5244e-07
7.56742e-07
1.28897e-06
2.12436e-07
5.95606e-07
1.27038e-06
8.40843e-07
5.54793e-07
9.45217e-07
6.45012e-07
6.17835e-07
1.69769e-06
1.4496e-06
5.5551e-07
6.29493e-07
6.04002e-07
1.05617e-06
1.23693e-06
1.59146e-06
4.63271e-07
4.70836e-07
5.12393e-07
2.19667e-06
4.2809e-07
2.03615e-06
6.07761e-06
7.54234e-07
5.87709e-07
6.18043e-07
6.53815e-07
1.1257e-06
2.06157e-07
4.12922e-07
5.88912e-07
1.18248e-06
1.23429e-06
1.13903e-06
1.27798e-06
1.36527e-06
7.60192e-07
1.38724e-06
6.52824e-07
8.99052e-07
8.13699e-07
1.23521e-06
1.61649e-06
1.81255e-06
1.92443e-06
2.05375e-06
1.98053e-06
1.60361e-06
2.25939e-06
1.68722e-07
8.51782e-07
1.52377e-07
3.16502e-07
9.5761e-07
3.26652e-07
3.58365e-07
9.14784e-07
2.35945e-06
1.32133e-06
1.88599e-06
7.96272e-07
4.89056e-07
5.96534e-07
9.00613e-07
7.90074e-07
8.38595e-07
5.75005e-06
5.39979e-06
1.95101e-06
2.27306e-06
2.72032e-06
2.73441e-06
2.57489e-06
1.09907e-06
1.36704e-06
1.47054e-06
7.09389e-07
9.4879e-07
9.91648e-07
1.36239e-06
5.70651e-06
2.76804e-06
5.29574e-06
5.22567e-06
5.9458e-06
7.02867e-06
7.23803e-06
5.1496e-06
2.0093e-06
2.23012e-06
8.74598e-07
9.14502e-07
8.28789e-07
1.18998e-06
1.20943e-06
1.73894e-06
1.9305e-06
1.17728e-06
1.37566e-06
8.99175e-07
2.86775e-06
1.0784e-06
6.11826e-07
5.12416e-07
1.11072e-06
7.36257e-07
5.35321e-07
6.81001e-07
5.41824e-07
7.28082e-07
7.70149e-07
1.82579e-06
1.07312e-06
2.29441e-06
2.12364e-07
6.47145e-07
1.03838e-06
1.00073e-06
1.07727e-06
1.72879e-06
8.45768e-07
7.31939e-07
5.90774e-07
8.24962e-07
7.75839e-07
9.05563e-07
2.22973e-06
1.74183e-06
9.10936e-07
1.31736e-06
6.27232e-07
7.00065e-07
6.55664e-07
6.05955e-07
6.44946e-07
1.50279e-06
1.55705e-06
8.38213e-07
5.5999e-07
4.97305e-07
5.62205e-07
5.4132e-07
5.79929e-07
1.02096e-06
8.84923e-07
6.69664e-07
1.20683e-06
6.01072e-07
6.15051e-07
6.04378e-07
6.28548e-07
6.84199e-07
1.38185e-06
3.38917e-07
5.46389e-07
4.99198e-07
9.93342e-07
1.62285e-06
1.60561e-06
1.50174e-06
1.34542e-06
1.47776e-06
1.19434e-06
1.25171e-06
1.06751e-06
6.0224e-07
1.07383e-06
9.8025e-07
4.90973e-07
1.28199e-06
1.57374e-06
1.80889e-06
2.06352e-06
2.08807e-06
2.2046e-06
2.18187e-06
1.19382e-06
2.23312e-06
1.59982e-07
3.77581e-07
8.39173e-07
1.03299e-06
4.25703e-07
3.52141e-07
1.05e-06
3.92704e-07
4.81219e-07
9.88627e-07
2.51166e-06
1.99543e-06
1.46891e-06
2.77247e-06
1.61195e-06
1.33291e-06
7.3923e-07
7.5085e-07
1.13285e-06
8.83497e-07
1.01653e-06
5.81047e-06
5.31221e-06
2.85407e-06
3.53807e-06
3.88282e-06
2.95503e-06
2.38591e-06
3.68894e-06
3.46658e-06
1.37838e-06
1.75622e-06
1.86551e-06
2.11419e-06
1.17896e-06
1.23302e-06
1.32073e-06
1.62399e-06
1.26642e-06
3.06121e-06
6.39367e-06
7.09553e-06
4.40145e-06
8.9144e-06
6.79842e-06
2.81264e-06
3.81517e-06
1.28829e-06
7.08239e-07
9.40468e-07
1.50591e-06
1.64781e-06
9.29011e-07
1.45007e-06
1.65939e-06
1.44609e-06
1.26967e-06
9.72424e-07
8.0636e-07
1.0694e-06
5.97634e-07
4.97314e-07
6.09017e-07
1.21985e-06
9.45524e-07
6.511e-07
8.58003e-07
6.96813e-07
5.86683e-07
7.09732e-07
7.42902e-07
8.81283e-07
7.73686e-07
8.21749e-07
1.51193e-06
1.85549e-06
1.13051e-06
3.24642e-06
8.16731e-07
1.05124e-06
1.66516e-06
1.19123e-06
1.30424e-06
2.21501e-06
1.3204e-06
8.30278e-07
7.29671e-07
7.51328e-07
6.27183e-07
7.35576e-07
7.54343e-07
7.01825e-07
9.22143e-07
7.38032e-07
1.24847e-06
2.53426e-06
9.2637e-07
2.09718e-06
9.21319e-07
6.95462e-07
6.64482e-07
1.61133e-06
6.46384e-07
6.6586e-07
7.29192e-07
7.10676e-07
6.58801e-07
7.47822e-07
7.59572e-07
1.36812e-06
7.54033e-07
1.61969e-06
5.7366e-07
5.33264e-07
6.14922e-07
5.81706e-07
9.18729e-07
8.52192e-07
6.75631e-07
6.62533e-07
1.5688e-06
6.22778e-06
1.04373e-06
6.14087e-07
6.15668e-07
6.15877e-07
6.50133e-07
6.65693e-07
7.44576e-07
6.71814e-07
1.44513e-06
3.45769e-07
4.37499e-07
7.49669e-07
9.53917e-07
6.86027e-07
1.18552e-06
1.85173e-06
1.68984e-06
1.69702e-06
1.64321e-06
1.56223e-06
1.56736e-06
2.80324e-06
1.61129e-06
7.5904e-07
7.77153e-07
1.15194e-06
1.0833e-06
8.05201e-07
1.38058e-06
1.64376e-06
1.94893e-06
2.24917e-06
2.29443e-06
2.33093e-06
2.27596e-06
1.74117e-06
2.35143e-06
2.37087e-06
6.89302e-07
3.35222e-07
4.83313e-07
4.14493e-07
9.38203e-07
1.05266e-06
4.58731e-07
6.08586e-07
1.27849e-06
1.32987e-06
6.8471e-07
1.08571e-06
3.07129e-06
2.62164e-06
3.36945e-06
3.29585e-06
1.90402e-06
1.72031e-06
1.57622e-06
1.77399e-06
1.83428e-06
1.47334e-06
9.50273e-07
1.38861e-06
1.10185e-06
1.11747e-06
7.31894e-06
3.57518e-06
5.77608e-06
3.62105e-06
5.40854e-06
3.88837e-06
8.0545e-06
3.99826e-06
1.9504e-06
2.71958e-06
1.34218e-06
5.03657e-06
3.64122e-06
5.32302e-06
5.04877e-06
1.8924e-06
2.95616e-06
3.77816e-06
3.29121e-06
1.38e-06
1.55367e-06
1.40194e-06
1.64081e-06
1.72324e-06
8.75288e-06
9.44077e-06
9.33958e-06
5.21611e-06
1.18529e-05
9.53249e-06
1.00184e-05
9.45079e-06
3.711e-06
4.22397e-06
1.73538e-06
1.01958e-06
7.59218e-07
1.00053e-06
8.92047e-07
7.4522e-07
1.30379e-06
1.02694e-06
1.43491e-06
9.53508e-07
9.41551e-07
9.76076e-07
5.33849e-07
5.17423e-07
5.99407e-07
1.71818e-06
1.47198e-06
9.68462e-07
9.01484e-07
1.01665e-06
1.09591e-06
6.50363e-07
7.16716e-07
7.32211e-07
6.16973e-07
8.17053e-07
6.96152e-07
8.83491e-07
6.63323e-07
6.90876e-07
6.71679e-07
7.58202e-07
1.01291e-06
8.83525e-07
7.84582e-07
8.06229e-07
8.24795e-07
1.36079e-06
1.6515e-06
1.17873e-06
1.35394e-06
9.41368e-07
3.35484e-06
1.05147e-06
1.51844e-06
1.41622e-06
2.09063e-06
3.73535e-06
3.23103e-06
2.63879e-06
1.11727e-06
1.28303e-06
1.41686e-06
1.63625e-06
2.77941e-06
7.31953e-07
9.04597e-07
7.82762e-07
7.40958e-07
7.03838e-07
7.29886e-07
7.55275e-07
7.45526e-07
9.04728e-07
8.12869e-07
7.96354e-07
1.06635e-06
1.15328e-06
3.04641e-06
2.14418e-06
9.28967e-07
1.67762e-06
7.50437e-07
7.81123e-07
8.90836e-07
1.71632e-06
6.48401e-07
6.63664e-07
8.98769e-07
8.40773e-07
7.07589e-07
7.76691e-07
7.67987e-07
1.51152e-06
7.5973e-07
1.50302e-06
6.48852e-07
5.84626e-07
5.40063e-07
6.43025e-07
6.50837e-07
6.09737e-07
5.80811e-07
5.75982e-07
8.96575e-07
1.69348e-06
6.44058e-07
6.79005e-07
1.7666e-06
3.14847e-06
1.46954e-06
7.00952e-06
6.52553e-07
6.12e-07
6.57959e-07
6.6747e-07
6.66118e-07
7.0472e-07
7.2254e-07
7.48822e-07
7.38064e-07
7.13094e-07
1.55011e-06
1.12926e-06
9.72316e-07
1.07279e-06
1.25556e-06
9.18875e-07
1.64869e-06
2.02647e-06
1.8798e-06
1.86985e-06
1.73035e-06
1.6702e-06
1.67022e-06
1.30906e-06
1.64664e-06
1.36638e-06
7.44003e-07
1.38105e-06
6.83337e-07
1.13164e-06
1.03469e-06
5.33382e-07
1.2544e-06
1.80162e-06
1.46964e-06
2.02522e-06
2.2315e-06
2.4991e-06
2.43464e-06
2.38668e-06
1.35163e-06
2.42508e-06
2.2821e-06
4.15682e-07
4.12045e-07
7.78942e-07
5.34827e-07
5.56894e-07
1.30959e-06
9.98861e-07
4.29003e-07
7.57355e-07
6.55751e-07
1.34707e-06
1.05619e-06
9.45467e-07
1.33917e-06
2.47205e-06
2.04985e-06
3.45275e-06
3.45419e-06
4.09964e-06
3.30065e-06
1.92755e-06
1.49124e-06
1.73198e-06
1.54455e-06
4.61628e-06
1.69022e-06
1.37223e-06
1.5224e-06
1.20862e-06
1.2704e-06
6.76412e-06
6.6159e-06
7.09416e-06
7.73222e-06
5.53578e-06
9.16075e-06
8.19186e-06
6.22509e-06
6.84813e-06
5.70304e-06
7.62791e-06
2.10161e-06
1.33585e-06
1.02596e-06
4.2499e-06
2.61514e-06
2.93654e-06
5.55022e-06
6.61249e-06
7.24127e-06
2.13066e-06
2.87377e-06
6.01324e-06
3.96055e-06
5.33507e-06
1.80001e-06
1.94185e-06
1.68044e-06
1.85633e-06
1.80244e-06
7.6807e-06
1.19062e-05
2.11048e-06
7.37965e-06
1.38131e-05
1.25449e-05
6.89847e-06
1.38647e-05
8.20027e-06
4.4201e-06
5.0636e-06
2.13093e-06
2.15287e-06
8.64002e-07
9.82351e-07
1.53764e-06
3.89445e-07
4.0468e-07
8.83894e-07
9.05747e-07
5.66554e-07
5.86271e-07
9.75667e-07
7.41508e-07
5.37773e-07
6.71199e-07
1.55003e-06
1.15556e-06
1.21791e-06
1.15597e-06
1.11419e-06
1.14356e-06
1.02735e-06
1.2015e-06
1.1436e-06
1.23028e-06
7.08061e-07
7.21394e-07
3.54139e-07
3.68906e-07
6.19808e-07
1.03554e-06
6.75763e-07
7.25649e-07
6.80734e-07
6.21052e-07
1.17456e-06
7.24178e-07
7.11526e-07
6.64639e-07
9.20163e-07
3.47971e-07
7.79706e-07
8.16312e-07
1.01544e-06
1.21864e-06
8.85704e-07
8.76289e-07
8.17829e-07
7.89427e-07
1.40954e-06
8.26071e-07
1.24581e-06
1.5633e-06
1.20776e-06
8.62715e-07
3.82985e-07
9.6281e-07
1.79102e-06
3.08822e-06
5.45436e-06
3.49583e-06
1.4755e-06
1.47001e-06
2.80211e-06
1.54385e-06
2.22411e-06
4.14526e-06
3.75251e-06
1.26625e-06
1.26002e-06
1.21116e-06
1.48093e-06
3.15648e-06
7.59456e-07
9.65903e-07
7.81575e-07
9.56802e-07
7.67349e-07
8.22153e-07
6.72973e-07
7.47226e-07
8.99695e-07
8.27898e-07
8.35109e-07
8.05419e-07
8.9661e-07
9.2209e-07
9.21514e-07
1.10435e-06
2.93445e-06
8.70519e-07
2.22301e-06
1.05035e-06
8.67204e-07
1.68329e-06
1.05189e-06
9.16767e-07
7.79387e-07
8.6426e-07
7.87526e-07
1.52969e-06
8.84746e-07
1.2863e-06
1.27519e-06
8.26187e-07
8.28293e-07
8.06361e-07
1.52733e-06
8.11524e-07
1.50109e-06
6.68889e-07
5.77595e-07
6.67345e-07
6.14957e-07
5.77668e-07
5.84808e-07
1.15669e-06
6.24119e-07
7.29479e-07
6.84553e-07
6.75918e-07
2.24918e-06
1.70066e-06
1.45497e-05
1.36964e-06
1.2982e-05
1.14995e-06
7.18262e-07
7.15647e-07
8.8196e-07
8.38942e-07
8.17733e-07
7.93709e-07
7.37022e-07
8.01364e-07
8.02896e-07
1.00189e-06
7.10922e-07
8.37686e-07
7.62756e-07
1.53704e-06
1.54103e-06
1.29753e-06
5.27139e-07
7.31152e-07
1.35185e-06
1.33409e-06
1.37878e-06
1.86614e-06
1.92369e-06
2.02241e-06
1.89104e-06
1.9178e-06
1.91494e-06
1.83385e-06
1.74121e-06
3.17898e-06
1.72145e-06
1.57613e-06
6.6927e-07
9.98075e-07
9.00068e-07
1.17444e-06
1.00837e-06
8.47327e-07
1.28327e-06
1.79559e-06
1.50266e-06
1.99445e-06
2.51329e-06
2.71178e-06
2.58987e-06
2.49602e-06
1.75861e-06
2.55421e-06
2.38866e-06
2.34328e-06
3.38237e-07
5.57958e-07
3.81702e-07
4.91793e-07
7.57285e-07
5.62187e-07
1.34432e-06
1.30519e-06
4.18395e-07
1.10312e-06
8.90371e-07
1.46866e-06
4.51758e-07
1.2054e-06
1.04368e-06
1.30571e-06
2.71536e-06
3.32158e-06
2.55137e-06
3.91356e-06
5.38188e-06
6.35197e-06
1.99527e-06
3.01197e-06
1.08597e-06
6.40124e-07
2.00266e-06
6.27208e-06
3.31954e-06
1.5462e-06
1.53205e-06
1.22664e-06
2.23029e-06
8.19801e-06
1.39356e-06
1.00715e-05
7.7503e-06
8.80737e-06
5.933e-06
8.61591e-06
9.10577e-06
1.05567e-05
1.01545e-05
5.60435e-06
4.99292e-06
5.17287e-06
4.54233e-06
5.10698e-06
6.64328e-06
1.0391e-06
1.42685e-06
2.05404e-06
2.2494e-06
6.14651e-06
7.33775e-06
1.15251e-05
2.9193e-06
4.38474e-06
7.13416e-06
7.72629e-06
5.48223e-06
1.91665e-06
2.12526e-06
2.20485e-06
2.02227e-06
1.88477e-06
1.8674e-06
1.76861e-06
1.39258e-05
2.8277e-06
1.37956e-05
1.60147e-05
1.17251e-05
7.70637e-06
1.4131e-05
1.67512e-05
1.08402e-05
1.10102e-05
5.54893e-06
5.62381e-06
2.95487e-06
2.09291e-06
2.52229e-06
8.56558e-07
1.02503e-06
1.43088e-06
1.79844e-06
4.12326e-07
4.05365e-07
5.53463e-07
8.10347e-07
5.76711e-07
5.42651e-07
1.68342e-06
1.88782e-06
7.6351e-07
1.92413e-06
1.61243e-06
6.47333e-07
1.65451e-06
1.09922e-06
1.93433e-06
1.27467e-06
1.90953e-06
1.24271e-06
1.2415e-06
1.38657e-06
7.57361e-07
1.26983e-06
7.66363e-07
4.15498e-07
3.5004e-07
3.51333e-07
3.18799e-07
5.53447e-07
1.88534e-06
1.23553e-06
6.67851e-07
7.01969e-07
5.99034e-07
1.13294e-06
6.17979e-07
1.20552e-06
1.2305e-06
9.42624e-07
7.19233e-07
7.18506e-07
5.88069e-07
3.52719e-07
5.72589e-07
9.12177e-07
8.40307e-07
1.25139e-06
1.18054e-06
1.36888e-06
8.77038e-07
1.15069e-06
1.04951e-06
8.44984e-07
8.30192e-07
9.95398e-07
8.25061e-07
1.22446e-06
1.48123e-06
8.54811e-07
8.99533e-07
1.80795e-06
3.22058e-06
3.28722e-06
1.56101e-06
4.78503e-06
5.01511e-06
2.9181e-06
1.22661e-06
1.47911e-06
1.26696e-06
3.54968e-06
1.6282e-06
1.57462e-06
1.87285e-06
4.67455e-06
5.15961e-06
3.65485e-06
7.97843e-07
1.20749e-06
8.11604e-07
1.24758e-06
1.4017e-06
3.5451e-06
9.3041e-07
1.29048e-06
8.278e-07
1.06033e-06
9.32573e-07
6.87247e-07
1.33161e-06
8.29958e-07
7.99432e-07
8.74971e-07
1.12512e-06
8.99589e-07
8.24925e-07
8.35221e-07
8.61098e-07
2.47738e-06
3.04818e-06
8.95511e-07
8.8706e-07
1.99371e-06
9.04894e-07
1.06185e-06
1.23198e-06
9.19204e-07
8.61888e-07
9.22399e-07
1.67809e-06
1.57784e-06
1.53533e-06
9.00466e-07
1.02227e-06
9.90476e-07
9.70359e-07
9.68174e-07
9.08849e-07
1.5425e-06
1.19756e-06
1.33575e-06
1.65883e-06
1.29519e-06
9.89117e-07
8.75669e-07
8.5034e-07
1.5598e-06
8.63446e-07
8.74477e-07
7.10674e-07
7.662e-07
7.13207e-07
7.70458e-07
7.14319e-07
6.15629e-07
5.84582e-07
5.00519e-07
6.33897e-07
7.69849e-07
7.24271e-07
6.98969e-07
6.77738e-07
7.66081e-07
2.288e-06
1.76508e-06
6.13394e-07
1.60211e-05
2.07107e-06
3.45089e-06
1.15192e-06
7.88306e-06
8.27453e-07
9.13146e-07
1.04838e-06
8.0576e-07
9.19642e-07
9.30553e-07
9.34374e-07
1.02224e-06
8.17344e-07
7.97336e-07
7.75249e-07
7.65802e-07
1.51009e-06
1.47941e-06
2.15638e-06
1.02168e-06
7.78597e-07
1.77377e-06
1.56804e-06
8.18566e-07
1.96701e-06
1.88605e-06
1.95259e-06
1.84973e-06
1.98771e-06
2.04252e-06
1.9239e-06
1.84355e-06
1.25272e-06
1.8086e-06
1.632e-06
1.30001e-06
8.01365e-07
8.6479e-07
1.34771e-06
6.87334e-07
1.02369e-06
9.33471e-07
4.94398e-07
1.13865e-06
1.67456e-06
1.37558e-06
2.0053e-06
2.78665e-06
2.41664e-06
2.89092e-06
2.72299e-06
1.37299e-06
2.51467e-06
2.307e-06
2.17174e-06
3.79117e-07
5.72654e-07
6.55922e-07
4.01189e-07
6.43331e-07
7.80539e-07
1.27508e-06
1.34964e-06
3.97438e-07
1.45914e-06
8.92494e-07
1.5727e-06
4.52663e-07
1.38353e-06
1.39172e-06
1.58831e-06
2.08777e-06
3.02843e-06
1.26229e-06
9.44673e-06
4.11018e-06
1.3143e-06
6.46291e-07
2.56373e-06
7.4817e-06
3.23551e-06
1.58861e-06
1.63756e-06
1.55088e-06
2.50595e-06
3.59265e-06
1.44869e-06
1.49478e-05
1.63359e-05
6.87342e-06
6.5437e-06
1.29867e-05
9.07343e-06
1.54981e-05
1.22401e-05
1.0412e-05
8.02913e-06
1.19727e-05
1.46507e-06
3.70307e-06
3.51914e-06
1.85903e-06
4.03802e-06
3.85901e-06
5.59369e-06
1.01192e-05
1.16888e-06
5.70462e-07
1.44534e-06
2.25012e-06
3.32429e-06
5.0649e-06
5.05244e-06
1.08618e-05
3.27494e-06
4.2911e-06
7.1662e-06
6.33994e-06
7.49468e-06
7.23655e-06
7.29666e-06
2.23624e-06
2.38254e-06
2.50131e-06
2.45546e-06
2.2839e-06
1.89391e-06
1.82088e-06
1.50751e-05
4.53314e-06
1.4444e-05
1.78226e-05
1.14134e-05
1.54909e-05
1.26764e-05
2.04948e-05
2.14968e-05
1.35996e-05
1.48656e-05
6.28011e-06
5.39714e-06
7.13936e-06
1.84653e-06
2.26013e-06
2.25397e-06
2.54421e-06
8.99393e-07
1.19335e-06
9.9343e-07
1.69382e-06
2.07106e-06
4.26747e-07
4.34325e-07
3.87372e-07
6.00255e-07
6.99384e-07
5.87533e-07
6.43345e-07
2.03036e-06
1.89058e-06
7.84878e-07
1.96887e-06
1.93386e-06
1.57829e-06
9.35574e-07
1.54264e-06
1.16556e-06
2.02703e-06
2.12005e-06
1.27378e-06
1.35744e-06
2.23238e-06
1.30377e-06
7.76839e-07
1.2832e-06
6.32138e-07
3.63201e-07
3.3359e-07
2.93218e-07
3.02887e-07
1.18541e-06
6.73447e-07
5.86616e-07
1.04147e-06
6.99898e-07
5.77278e-07
5.02357e-07
1.0694e-06
3.64303e-07
7.34752e-07
1.49313e-06
1.2576e-06
1.00311e-06
1.26568e-06
1.18657e-06
6.66076e-07
5.32533e-07
5.64117e-07
1.28761e-06
2.05939e-06
1.12719e-06
1.3771e-06
1.29542e-06
1.1773e-06
1.33212e-06
1.2132e-06
8.54113e-07
8.13674e-07
3.45289e-07
9.89233e-07
8.10141e-07
8.32984e-07
8.15809e-07
7.96802e-07
1.79369e-06
2.03344e-06
3.68103e-06
3.57966e-06
1.41834e-06
2.18286e-06
3.04911e-06
3.96357e-06
5.47519e-06
2.80556e-06
8.26814e-07
1.17197e-06
1.29153e-06
1.22024e-06
4.03465e-06
1.35094e-06
1.23204e-06
1.30334e-06
1.87492e-06
4.85958e-06
5.59931e-06
2.9728e-06
3.22793e-06
1.07301e-06
8.04374e-07
1.09738e-06
3.39628e-06
1.07411e-06
1.28865e-06
1.34287e-06
1.098e-06
1.15732e-06
9.12904e-07
1.06197e-06
8.09256e-07
8.02356e-07
8.7866e-07
8.79983e-07
1.30271e-06
9.55874e-07
1.2995e-06
7.66354e-07
7.88505e-07
8.70926e-07
8.50909e-07
2.29525e-06
2.73789e-06
1.13636e-06
9.31436e-07
9.34705e-07
1.88852e-06
8.96688e-07
1.03565e-06
1.29564e-06
1.30086e-06
1.29932e-06
1.24774e-06
1.01503e-06
1.3158e-06
1.02424e-06
9.8336e-07
1.58065e-06
9.94286e-07
1.58112e-06
1.73348e-06
1.0129e-06
1.0828e-06
1.2003e-06
9.96631e-07
9.19491e-07
9.07284e-07
9.45853e-07
9.50995e-07
1.61589e-06
1.27053e-06
1.1997e-06
1.84182e-06
1.34969e-06
1.72569e-06
1.28793e-06
1.21892e-06
8.96679e-07
9.07369e-07
8.60161e-07
8.85699e-07
8.89044e-07
1.59133e-06
8.96848e-07
9.33974e-07
7.68428e-07
7.13386e-07
7.20426e-07
7.19123e-07
5.3351e-07
7.61069e-07
8.15608e-07
8.55243e-07
8.54676e-07
7.44859e-07
7.16891e-07
7.98727e-07
2.55633e-06
6.38928e-06
2.05841e-06
2.53173e-06
7.29241e-07
7.2537e-07
1.79816e-05
1.80978e-06
5.65317e-07
1.37188e-05
1.11949e-06
1.27185e-06
1.04659e-06
1.21749e-06
8.94527e-07
9.30663e-07
1.04989e-06
9.39028e-07
1.31726e-06
1.25821e-06
8.19559e-07
8.56444e-07
8.58213e-07
8.65005e-07
7.88997e-07
8.57368e-07
8.86893e-07
8.64265e-07
1.56173e-06
1.45201e-06
8.1179e-07
1.45972e-06
1.47176e-06
1.54988e-06
8.00411e-07
6.1925e-07
1.92316e-06
1.13152e-06
7.9149e-07
1.87349e-06
1.77649e-06
1.86834e-06
1.78879e-06
2.14677e-06
1.97166e-06
2.24459e-06
2.08024e-06
9.46276e-07
1.88945e-06
1.62135e-06
1.45123e-06
8.46277e-07
8.21135e-07
9.51619e-07
6.64218e-07
9.52459e-07
7.71619e-07
7.01469e-07
1.20934e-06
1.72507e-06
1.44521e-06
1.89306e-06
3.05445e-06
2.4863e-06
2.85165e-06
3.17702e-06
2.65685e-06
1.62378e-06
2.36202e-06
2.154e-06
2.16341e-06
3.82322e-07
7.35576e-07
1.62013e-06
7.41356e-07
8.30702e-07
1.48587e-06
1.1146e-06
4.58548e-07
2.01414e-06
1.5258e-06
1.63998e-06
4.62827e-07
2.01727e-06
1.38973e-06
1.60688e-06
2.13272e-06
1.77407e-06
1.54671e-06
9.99856e-07
9.97913e-06
3.42747e-06
5.83166e-06
8.56173e-06
4.07913e-06
1.68863e-06
1.62606e-06
2.4924e-06
3.45749e-06
7.22895e-07
2.04695e-05
3.80919e-06
2.76301e-06
1.71432e-05
1.01999e-05
1.33429e-05
1.83433e-05
1.62044e-05
9.28245e-06
7.98336e-06
1.02681e-05
1.25374e-05
9.8493e-06
7.20892e-07
1.29704e-06
4.16123e-06
2.37051e-06
3.11046e-06
4.11745e-06
4.26354e-06
1.03642e-05
1.07744e-06
5.73983e-07
8.69043e-07
1.11588e-06
2.18389e-06
1.55126e-06
6.3375e-06
1.95382e-06
3.30356e-06
1.20304e-05
4.65577e-06
6.25151e-06
1.25548e-05
1.14101e-05
1.13376e-05
7.94232e-06
7.07272e-06
2.29372e-06
2.57793e-06
2.69704e-06
2.39924e-06
2.59379e-06
2.33278e-06
2.06949e-06
1.76685e-06
1.56608e-05
2.26833e-05
1.60856e-05
2.12767e-05
1.17862e-05
1.62252e-05
1.46268e-05
8.7074e-06
4.88919e-06
5.47657e-06
6.3868e-06
1.56963e-05
8.35874e-06
1.81831e-06
1.77495e-06
1.31509e-06
2.12322e-06
3.39104e-06
1.33524e-06
1.20334e-06
9.11171e-07
1.9125e-06
2.09937e-06
4.5572e-07
5.89164e-07
6.44773e-07
6.43499e-07
2.11579e-06
1.88951e-06
3.27568e-06
9.20861e-07
2.34076e-06
1.95217e-06
2.32997e-06
1.47959e-06
1.97478e-06
1.12106e-06
7.74487e-07
1.89507e-06
1.42116e-06
9.99607e-07
2.23974e-06
2.44212e-06
1.95015e-06
2.23729e-06
1.30227e-06
1.30252e-06
2.22542e-06
1.368e-06
1.37395e-06
7.31155e-07
1.37977e-06
1.29035e-06
2.87344e-06
7.70578e-07
4.90326e-07
3.38712e-07
4.80136e-07
3.31688e-07
2.96777e-07
3.77767e-07
1.50139e-06
8.73885e-07
6.10824e-07
5.79094e-07
1.37695e-06
1.03918e-06
5.71278e-07
5.02717e-07
5.73345e-07
4.34378e-07
6.35422e-07
8.20146e-07
1.44819e-06
9.3891e-07
1.43626e-06
1.26514e-06
6.79696e-07
8.80915e-07
4.84968e-07
1.8609e-06
2.0586e-06
1.31452e-06
1.72085e-06
1.32581e-06
1.08372e-06
3.33577e-07
8.05312e-07
9.76369e-07
1.08087e-06
1.34226e-06
1.88153e-06
1.32741e-06
2.93516e-06
3.13098e-06
2.53159e-06
4.07507e-06
1.21359e-06
1.29151e-06
1.77194e-06
1.91124e-06
2.74231e-06
3.49466e-06
5.2675e-06
5.03068e-06
1.58511e-06
8.13366e-07
1.03659e-06
1.04861e-06
1.04603e-06
1.28472e-06
4.44864e-06
1.56983e-06
1.16733e-06
1.11711e-06
1.47906e-06
1.16025e-06
1.71629e-06
4.31208e-06
5.20623e-06
4.6469e-06
1.96988e-06
8.72651e-07
8.33906e-07
8.55245e-07
9.03426e-07
9.34474e-07
3.30434e-06
1.14988e-06
1.44629e-06
1.7257e-06
2.12618e-06
1.29483e-06
1.2922e-06
1.35496e-06
8.66582e-07
8.55026e-07
8.79854e-07
1.31515e-06
1.5345e-06
1.12485e-06
1.32832e-06
7.66839e-07
8.2186e-07
7.98682e-07
9.18481e-07
9.02801e-07
8.83609e-07
2.20489e-06
7.85297e-07
2.63152e-06
1.38481e-06
1.13762e-06
9.95386e-07
1.14586e-06
1.04715e-06
9.88936e-07
1.74276e-06
1.0022e-06
1.04e-06
1.06587e-06
1.69805e-06
1.12186e-06
1.36091e-06
1.30373e-06
1.48857e-06
1.41369e-06
1.24178e-06
1.2096e-06
1.48021e-06
1.01971e-06
9.73075e-07
1.5797e-06
1.56755e-06
1.04077e-06
1.70499e-06
1.8343e-06
1.20846e-06
1.24887e-06
9.22342e-07
9.3265e-07
9.71483e-07
1.01122e-06
1.07365e-06
9.63625e-07
1.67384e-06
1.84151e-06
1.84061e-06
1.84254e-06
2.48922e-06
1.84379e-06
1.70559e-06
1.31466e-06
2.23698e-06
1.21821e-06
9.41786e-07
9.3475e-07
9.00054e-07
9.25773e-07
9.41254e-07
5.50817e-07
7.73304e-07
8.87411e-07
1.43804e-06
1.49536e-06
6.9162e-07
9.10149e-07
1.09877e-05
1.06457e-06
9.79507e-06
1.02244e-06
2.98592e-06
2.69179e-06
6.85442e-07
7.05934e-07
6.10613e-07
2.39653e-05
8.75811e-06
1.86704e-06
5.66846e-07
1.39943e-05
1.24861e-06
1.25397e-06
1.7412e-06
1.29372e-06
1.18678e-06
1.22301e-06
1.21758e-06
1.29805e-06
1.59898e-06
1.60704e-06
1.31438e-06
1.73929e-06
1.27829e-06
1.82546e-06
8.46404e-07
1.01389e-06
1.01897e-06
8.67868e-07
8.52966e-07
1.05061e-06
9.05393e-07
9.19867e-07
8.89649e-07
1.6464e-06
8.03862e-07
1.49267e-06
8.04249e-07
8.0416e-07
1.44481e-06
1.44304e-06
1.40243e-06
1.3087e-06
7.70862e-07
2.26379e-06
1.0494e-06
4.99023e-07
1.88146e-06
1.71993e-06
1.7141e-06
1.61419e-06
2.2826e-06
1.9586e-06
2.1812e-06
2.40562e-06
1.95058e-06
1.10345e-06
1.67027e-06
1.49466e-06
1.19267e-06
7.04365e-07
8.26047e-07
9.47174e-07
5.24318e-07
1.05667e-06
7.34481e-07
7.91126e-07
6.82652e-07
9.87803e-07
1.62618e-06
1.30467e-06
1.96434e-06
3.25722e-06
3.08853e-06
2.14689e-06
2.79088e-06
2.96663e-06
3.24068e-06
2.67715e-06
1.45696e-06
2.21092e-06
2.05683e-06
1.92718e-06
3.4341e-07
5.4933e-07
9.90004e-07
6.92412e-07
3.22372e-06
9.20339e-07
6.30481e-07
1.2122e-06
1.32291e-06
5.55381e-06
1.23711e-06
1.65132e-06
2.96555e-06
2.48635e-06
1.71538e-06
1.28382e-06
1.57576e-06
5.79966e-07
7.06894e-06
1.17715e-05
5.49895e-07
4.22726e-06
6.88936e-06
9.05783e-06
1.80928e-06
1.65792e-06
1.787e-06
5.56004e-07
2.26867e-05
3.51836e-06
2.00268e-05
1.46773e-05
2.21752e-05
1.86298e-05
1.89157e-05
1.59936e-05
2.41564e-05
4.78533e-06
8.41313e-06
4.58239e-06
1.52131e-05
1.354e-05
5.02662e-06
1.12888e-05
7.19956e-07
1.57664e-06
3.76835e-06
1.45924e-06
1.85183e-06
5.05746e-06
1.17623e-05
5.75671e-07
8.0215e-07
9.38627e-07
9.61735e-07
4.5685e-06
3.50944e-06
1.60483e-06
2.94077e-06
1.26252e-05
4.83629e-06
8.62121e-06
1.50175e-05
1.14912e-05
1.46732e-05
1.05828e-05
8.30691e-06
9.09797e-06
2.45961e-06
2.60383e-06
2.75285e-06
2.71094e-06
2.84196e-06
2.73773e-06
2.07931e-06
2.05484e-06
2.15669e-05
1.43802e-05
2.13987e-05
2.12569e-05
8.81506e-06
4.44998e-06
7.46004e-06
5.10304e-06
3.82194e-06
7.34313e-06
1.76471e-05
1.21411e-05
1.9263e-06
1.1266e-06
1.42927e-06
2.53115e-06
3.21928e-06
1.60806e-06
1.18712e-06
9.73173e-07
1.30297e-06
1.92812e-06
2.16776e-06
6.8423e-07
3.36205e-06
2.91762e-06
3.20424e-06
2.25535e-06
9.50672e-07
3.97983e-06
2.2633e-06
3.21524e-06
2.2599e-06
2.09309e-06
1.46821e-06
8.29768e-07
2.1694e-06
5.27935e-07
1.83279e-06
1.63012e-06
1.09032e-06
9.98922e-07
4.40095e-06
2.46198e-06
2.23142e-06
6.22157e-06
2.39643e-06
1.39134e-06
7.50323e-07
1.57475e-06
1.53647e-06
1.98673e-06
6.50858e-07
3.38951e-07
5.7113e-07
8.08506e-07
6.70668e-07
3.34776e-07
8.54382e-07
6.49192e-07
6.29298e-07
1.36672e-06
1.01124e-06
1.22298e-06
6.55253e-07
5.66899e-07
1.15894e-06
8.1757e-07
5.51793e-07
1.05847e-06
9.41011e-07
9.36844e-07
2.02129e-06
1.43675e-06
1.26971e-06
1.19935e-06
6.98592e-07
2.97002e-06
2.03153e-06
1.6219e-06
1.71674e-06
3.37578e-07
9.32301e-07
9.99942e-07
9.25661e-07
1.06372e-06
1.4943e-06
1.93789e-06
1.10846e-06
3.62918e-06
1.96975e-06
2.69632e-06
4.35429e-06
3.56871e-06
1.02544e-06
9.89123e-07
1.62117e-06
1.89114e-06
2.18483e-06
3.14187e-06
3.74741e-06
4.99879e-06
4.79101e-06
4.81581e-06
3.26437e-06
2.07872e-06
7.91729e-07
9.20183e-07
1.23863e-06
4.27079e-06
1.15604e-06
1.12344e-06
1.24196e-06
4.58879e-06
1.21599e-06
3.61699e-06
4.03634e-06
1.53699e-06
7.71944e-07
7.79566e-07
1.15696e-06
8.45802e-07
8.42409e-07
9.11869e-07
2.98446e-06
1.36345e-06
1.70413e-06
1.71871e-06
2.18026e-06
1.29207e-06
1.72785e-06
9.82148e-07
1.11013e-06
1.48553e-06
1.54057e-06
1.81301e-06
1.12581e-06
1.39022e-06
7.87442e-07
9.59703e-07
7.72804e-07
9.54384e-07
1.11017e-06
9.53809e-07
8.82899e-07
8.73047e-07
1.94983e-06
7.56647e-07
9.57181e-07
8.1854e-07
2.25423e-06
1.73226e-06
1.7297e-06
9.9604e-07
1.45351e-06
1.21616e-06
1.24684e-06
1.27558e-06
1.01146e-06
1.60933e-06
1.11465e-06
1.06858e-06
1.83355e-06
1.22676e-06
2.50544e-06
1.93087e-06
2.54731e-06
1.45173e-06
1.40823e-06
1.40742e-06
1.48218e-06
1.582e-06
1.22336e-06
1.15063e-06
1.63994e-06
1.22716e-06
1.52167e-06
1.15738e-06
1.5704e-06
1.20112e-06
1.68703e-06
1.73605e-06
2.33014e-06
1.956e-06
2.04308e-06
9.41631e-07
9.68797e-07
1.58939e-06
1.47171e-06
1.13098e-06
1.10768e-06
1.6473e-06
1.8378e-06
2.14527e-06
2.15321e-06
2.66368e-06
2.41932e-06
2.80426e-06
2.24065e-06
1.94178e-06
1.02488e-06
1.03151e-06
1.0293e-06
5.48856e-07
6.79726e-07
9.02083e-07
1.43639e-06
1.48522e-06
1.50239e-06
2.04256e-06
7.01739e-07
7.82849e-07
1.06702e-06
1.00242e-06
1.6859e-05
1.125e-06
1.29322e-05
9.60077e-07
2.92945e-06
6.90155e-07
6.07659e-07
2.93153e-05
2.04166e-05
7.5584e-06
1.30625e-05
8.91722e-07
5.61818e-07
2.21558e-05
2.893e-06
1.07987e-06
5.17735e-06
9.91273e-07
1.60902e-06
1.84837e-06
1.51505e-06
1.55672e-06
1.8936e-06
1.61221e-06
1.89467e-06
1.34018e-06
1.79872e-06
1.71563e-06
1.4776e-06
1.80344e-06
1.52669e-06
1.41583e-06
1.37036e-06
9.10116e-07
8.97588e-07
1.05611e-06
1.04434e-06
1.09304e-06
1.062e-06
9.87169e-07
1.09588e-06
9.64943e-07
1.49667e-06
8.58762e-07
1.4466e-06
8.71142e-07
8.05551e-07
8.21523e-07
7.95194e-07
1.52034e-06
1.7437e-06
1.67671e-06
1.50708e-06
6.35356e-07
1.55684e-06
1.91892e-06
5.94456e-07
1.06636e-06
1.97657e-06
1.67094e-06
1.43719e-06
1.60165e-06
2.50107e-06
2.29219e-06
1.62938e-06
2.15992e-06
2.37801e-06
2.5511e-06
2.08971e-06
8.01261e-07
1.542e-06
1.47178e-06
1.36108e-06
8.8657e-07
1.12746e-06
1.35128e-06
8.50044e-07
7.67446e-07
1.1117e-06
5.63915e-07
7.03729e-07
5.9546e-07
9.62715e-07
1.70783e-06
1.34986e-06
1.87647e-06
3.47385e-06
3.29489e-06
2.30545e-06
2.78458e-06
2.90199e-06
3.10463e-06
3.33178e-06
2.55832e-06
1.39446e-06
2.27568e-06
2.03989e-06
1.90894e-06
4.67211e-07
5.10406e-07
6.63451e-07
1.9006e-06
5.27388e-07
8.20194e-07
7.48777e-07
8.68232e-07
1.29763e-06
9.96129e-07
2.94676e-06
3.06391e-06
1.61765e-06
1.40864e-06
3.6241e-06
2.27579e-06
1.83242e-06
8.61433e-07
1.30976e-06
1.3764e-06
1.07096e-05
1.65819e-06
1.29184e-05
8.87948e-07
6.12392e-06
8.77394e-06
1.00477e-05
1.61379e-06
1.59173e-06
1.78411e-06
5.92702e-07
2.39167e-05
2.99084e-06
2.8524e-05
2.91252e-05
1.59965e-05
2.67951e-05
2.8148e-05
2.2281e-05
1.23957e-05
9.65601e-06
2.33699e-05
2.79987e-05
4.36731e-06
5.4434e-06
4.6099e-06
2.72298e-06
7.42329e-06
7.68634e-06
1.27165e-05
2.25017e-05