/*--------------------------------*- C++ -*----------------------------------*\
  =========                 |
  \\      /  F ield         | OpenFOAM: The Open Source CFD Toolbox
   \\    /   O peration     | Website:  https://openfoam.org
    \\  /    A nd           | Version:  12
     \\/     M anipulation  |
\*---------------------------------------------------------------------------*/
FoamFile
{
    format      ascii;
    class       surfaceScalarField;
    location    "32";
    object      phi;
}
// * * * * * * * * * * * * * * * * * * * * * * * * * * * * * * * * * * * * * //

dimensions      [0 3 -1 0 0 0 0];

internalField   nonuniform List<scalar> 
305308
(
7.46545e-11
-1.11368e-10
3.67107e-11
-3.88646e-11
-1.93434e-10
3.06951e-10
-3.60347e-11
1.61053e-10
-2.36377e-10
2.32115e-10
-4.51542e-10
2.56132e-10
4.80182e-11
-7.72372e-10
9.17601e-10
-6.25091e-12
-2.61839e-10
7.46638e-11
3.71405e-09
-1.19609e-09
-2.21105e-09
2.73492e-10
3.16457e-10
-6.2596e-10
-1.23956e-10
8.13856e-10
-9.80374e-10
1.9085e-10
-2.62342e-12
-4.24606e-10
7.13535e-10
-1.08364e-09
6.26236e-10
1.14261e-09
-1.99393e-09
1.61288e-09
2.966e-11
-1.16968e-09
3.61408e-10
1.33946e-08
-2.22905e-09
-6.53389e-09
7.31149e-10
-5.42338e-11
-9.38746e-10
1.9787e-09
4.8061e-10
-2.38464e-09
-1.63787e-09
6.32632e-10
-7.50377e-10
5.18023e-10
1.6467e-10
3.15282e-10
-2.06452e-10
1.07518e-09
1.4152e-09
-2.29784e-09
-9.80367e-11
-5.70803e-10
4.28537e-11
-1.18809e-10
2.47232e-09
-2.62329e-09
8.00978e-10
-2.80085e-11
-1.75597e-09
3.30295e-10
-8.11541e-10
5.66371e-11
-4.85131e-08
6.5836e-08
-1.66967e-08
-4.5824e-09
3.59266e-09
2.13236e-09
2.09884e-10
-3.37992e-09
1.20576e-09
3.04584e-08
-1.7077e-09
-1.37432e-08
3.14974e-09
-2.94943e-10
-3.29332e-09
7.35326e-09
1.00064e-09
-7.51188e-09
-4.02525e-09
9.59301e-10
-1.98131e-09
2.0503e-09
4.14492e-10
-4.68697e-10
1.81258e-09
-3.87606e-09
1.12474e-09
1.24543e-09
-4.5228e-09
8.92729e-10
-5.19256e-09
8.60426e-09
-2.77907e-09
-1.17571e-09
-3.49883e-09
1.02535e-10
6.2132e-11
6.70135e-10
1.2194e-09
-4.99063e-10
-2.31823e-10
-8.74452e-10
8.99814e-10
3.63574e-09
2.83087e-09
-5.17021e-09
-5.23569e-10
-2.23966e-09
3.67317e-10
-4.46388e-10
-2.33969e-10
1.09552e-10
6.85567e-10
-6.96037e-10
5.33235e-11
-4.24051e-08
1.92038e-09
1.72625e-10
-4.7443e-09
1.73712e-09
-3.48396e-09
3.21157e-10
2.06522e-09
2.70206e-10
-3.14697e-09
1.19781e-10
-5.09556e-10
-2.85402e-09
4.79185e-08
2.07716e-08
7.00111e-09
-2.82802e-08
-2.0213e-08
3.42172e-08
-1.04115e-08
1.97783e-08
4.38115e-08
-6.14574e-08
1.34104e-07
2.14672e-08
-1.55361e-07
-9.95963e-10
8.79461e-09
-8.02883e-09
1.93488e-08
5.78151e-10
-1.77206e-08
3.19091e-08
-2.16638e-08
-4.65095e-09
8.38391e-10
-2.14914e-09
5.77344e-09
2.07429e-09
-1.95469e-09
6.44762e-09
-1.18656e-08
3.93729e-09
4.18224e-09
-1.33117e-08
2.86296e-09
-1.26652e-08
2.68089e-08
-4.58013e-09
-1.91408e-09
-9.87657e-09
5.25883e-10
-4.86722e-10
-5.07838e-10
2.37186e-09
-2.02631e-09
-4.22161e-09
1.70379e-09
-5.10185e-09
1.33832e-09
7.62918e-09
-8.07477e-09
-3.38262e-09
2.66876e-09
-6.74529e-11
-1.12818e-08
7.85041e-09
2.86468e-10
1.80353e-10
-3.64286e-10
4.33337e-10
2.98926e-10
1.71762e-09
-5.21367e-10
-1.2474e-09
-2.22906e-09
2.74557e-09
-7.96198e-10
6.07313e-10
1.62287e-09
-4.60267e-10
-2.62789e-10
-1.39684e-09
-5.72015e-09
1.42321e-09
-1.88649e-09
-7.20421e-10
1.33278e-10
2.39092e-09
-2.4197e-09
-2.99941e-10
4.37917e-10
-5.99695e-10
2.71327e-10
7.99702e-10
-5.84478e-11
-6.87931e-10
-4.28102e-08
-9.91731e-10
2.09316e-08
-2.86768e-08
7.91786e-09
4.3437e-09
-7.97297e-09
6.22082e-10
5.64137e-09
8.43181e-10
-9.69831e-09
7.18135e-10
-2.16371e-09
8.63631e-10
-4.31644e-09
3.05844e-10
6.91707e-10
2.37696e-10
-1.43894e-09
-8.35559e-10
4.8754e-08
1.60112e-08
4.38027e-08
-3.90423e-08
4.27906e-08
-1.86892e-08
-1.68535e-08
7.26252e-09
2.24452e-09
1.32835e-08
7.47023e-08
-4.13023e-08
1.5615e-07
-8.35036e-08
1.03607e-08
1.10788e-07
-9.96815e-08
-1.5835e-07
1.81502e-08
-1.51612e-08
-5.19604e-09
6.27437e-09
-1.63131e-07
1.35757e-08
1.56166e-08
-2.5999e-08
8.80112e-09
1.11205e-07
-1.00267e-07
-2.91217e-08
9.25953e-09
6.32387e-09
-6.54239e-09
2.34287e-08
1.50229e-08
-8.65274e-08
8.03051e-09
5.68331e-08
-9.15979e-09
-2.03355e-09
-2.7138e-08
5.64454e-08
-1.66004e-09
2.25289e-08
-8.37394e-10
-2.24412e-08
2.05128e-09
-1.94225e-09
-1.53781e-09
8.19678e-09
-6.73056e-09
-1.096e-08
6.24248e-09
-1.39131e-08
4.17864e-09
2.0076e-08
-2.00533e-08
-5.27597e-09
2.95459e-09
-2.0359e-11
-2.90511e-08
1.91274e-08
7.0655e-10
-8.29531e-12
-1.18497e-09
1.58906e-09
-4.12321e-09
3.32518e-09
-9.96438e-09
2.41758e-09
4.58501e-09
-1.46856e-08
4.99878e-09
1.34935e-09
-5.00195e-09
1.27775e-09
-1.01416e-08
7.89063e-10
-2.88867e-08
4.47964e-08
-1.3241e-08
-7.06042e-09
-1.39759e-08
4.25365e-10
-7.82153e-11
-6.0684e-11
1.05836e-09
6.3564e-10
-1.08031e-09
6.30377e-10
6.28206e-10
1.18098e-09
-4.04721e-09
-2.77347e-09
5.05191e-09
-2.44126e-09
1.80692e-09
4.67561e-09
-2.4439e-09
5.35907e-11
6.8178e-11
-1.19161e-09
1.73075e-09
-1.53816e-09
-8.33828e-10
2.1092e-09
-4.79947e-09
-1.16037e-09
-4.80742e-10
4.7856e-09
-4.55994e-09
-1.22216e-09
1.82958e-09
-2.19589e-09
9.37503e-10
3.21356e-09
-4.66709e-10
-2.24709e-09
6.22288e-10
-5.30271e-10
7.25763e-10
-5.12883e-10
1.10076e-09
6.66438e-10
-2.45513e-09
-2.95574e-08
7.67877e-09
-3.45909e-08
1.67457e-08
-3.89043e-08
2.36899e-08
-1.34624e-08
-9.80824e-09
8.56631e-09
-2.04015e-09
-3.25204e-08
9.13929e-09
4.10779e-09
-2.03769e-08
-5.4994e-09
2.0417e-09
-1.14206e-08
5.4422e-10
1.71357e-09
1.2492e-09
-4.88877e-09
5.48549e-09
-3.24786e-09
-6.55407e-09
1.05673e-09
-2.18981e-09
9.79325e-08
3.79221e-08
-8.71006e-08
2.58331e-08
1.39223e-08
-3.5967e-08
9.48572e-08
1.11624e-08
3.88907e-08
1.12345e-08
1.44387e-08
9.91482e-08
-3.84352e-08
1.53283e-07
-2.18402e-07
-2.07508e-08
1.5565e-07
8.03833e-08
1.16035e-08
-9.31348e-08
-2.54827e-07
2.12633e-08
4.89761e-09
-4.84435e-09
-3.19803e-09
2.2411e-08
2.10678e-07
-2.26814e-07
-1.67594e-07
-5.28219e-08
5.7284e-08
-2.1884e-07
-1.82424e-07
3.04472e-08
-1.48301e-08
2.0449e-08
-2.3421e-08
1.77558e-08
-3.18339e-08
6.20763e-08
-1.65694e-08
-1.45774e-07
-2.11419e-07
1.86724e-07
3.39552e-08
9.89582e-09
4.23349e-08
-4.17282e-08
-2.99495e-09
1.14098e-08
6.60798e-09
-1.04932e-08
1.11555e-07
-4.42286e-08
-2.62393e-09
-2.40457e-09
1.8849e-08
3.49724e-08
4.6972e-10
1.73356e-09
3.35322e-08
5.1073e-08
1.43107e-07
-1.10412e-07
-6.15298e-08
-1.11449e-09
4.01827e-08
2.86847e-09
1.9426e-11
-4.12358e-09
5.47079e-09
-1.21501e-08
1.12462e-08
-2.40975e-08
5.21647e-09
1.44694e-08
-3.55225e-08
1.1725e-08
4.33169e-09
-1.19575e-08
4.04234e-09
-2.46747e-08
1.85681e-09
-5.11339e-08
1.16989e-07
-1.81039e-08
-7.87489e-09
-3.1192e-08
1.12356e-09
-2.44744e-10
-8.87116e-10
8.06479e-10
1.10382e-09
-3.09527e-09
1.36416e-09
-3.42889e-09
-2.05848e-09
2.08931e-09
-4.00372e-09
-8.04998e-09
5.08649e-09
-1.73545e-08
3.56949e-09
-8.7123e-09
-1.35328e-08
9.62177e-10
7.56867e-09
1.2137e-09
-1.39574e-08
-1.03317e-08
2.5762e-09
-1.57978e-09
-3.02785e-08
1.78824e-08
1.45818e-09
9.07515e-11
1.2196e-09
-7.01122e-11
-1.69342e-10
-1.38483e-09
-3.35306e-10
1.65946e-09
8.60037e-10
2.12785e-09
-1.17126e-09
2.20071e-09
2.02496e-09
7.59272e-10
-1.5159e-09
-4.268e-09
3.83887e-09
-7.5639e-09
7.1187e-09
3.0532e-09
5.67246e-10
-3.61364e-09
4.92149e-09
-4.88461e-09
-2.11471e-09
5.51475e-09
8.5173e-10
-9.42582e-10
-1.39785e-10
1.03671e-09
3.30412e-09
-7.36777e-10
-4.58148e-10
-7.02788e-09
4.41304e-09
-5.02501e-09
1.96082e-09
-1.66613e-08
-2.47901e-09
1.45804e-08
-1.82977e-09
7.49155e-09
-3.67038e-09
2.89596e-09
-2.75599e-09
3.28028e-09
-2.08372e-09
2.64624e-09
2.83622e-09
-7.06312e-09
2.87188e-09
-1.38756e-09
-2.01459e-09
1.49732e-09
-1.02416e-09
-9.86042e-10
2.25446e-09
-1.5867e-09
-3.1229e-09
-2.14258e-08
-5.48633e-09
2.07123e-08
-2.0628e-08
3.01025e-08
-6.56816e-08
2.21168e-08
3.55391e-09
1.67403e-08
-1.62502e-09
-5.25423e-08
-4.56597e-08
2.4618e-08
-7.30526e-08
3.07964e-09
-2.09392e-08
-4.75568e-10
2.00054e-09
3.61967e-09
-9.87042e-09
1.12417e-08
-9.86724e-09
-1.60429e-08
3.34507e-09
-6.63288e-09
-3.07306e-09
-4.22117e-09
7.40156e-10
6.44702e-10
1.27321e-09
-4.10773e-09
3.71043e-08
1.67778e-09
1.80831e-07
-5.72543e-08
9.14856e-09
1.16791e-08
5.00545e-09
-3.02176e-08
3.6576e-08
1.24113e-07
-1.58954e-08
8.0535e-08
2.95959e-08
1.84434e-08
-4.93619e-09
-1.31835e-08
3.25584e-08
1.14659e-07
7.10004e-08
-8.65109e-08
-6.29755e-08
1.70037e-07
4.62215e-08
-6.87872e-08
1.65994e-07
-4.53306e-09
1.33512e-07
-6.36219e-08
1.24992e-07
1.1823e-08
-1.25211e-07
-1.76332e-07
6.66279e-08
6.67709e-09
1.31269e-07
-1.16683e-07
2.50529e-07
-1.12091e-07
-1.3354e-07
7.49516e-09
1.37446e-10
-9.60849e-09
1.22266e-08
-2.4784e-08
-2.45567e-08
4.82716e-08
1.03186e-07
-1.54413e-07
-1.59469e-09
-1.31997e-07
1.2949e-08
-7.97713e-09
-1.07677e-07
-4.99328e-09
-1.56982e-07
-1.63216e-07
2.80476e-08
-4.48522e-08
4.6298e-09
-7.28322e-08
3.45501e-08
2.09176e-08
-9.10469e-08
1.93827e-07
-1.79743e-07
1.98711e-08
-4.86073e-09
1.85584e-07
-1.70827e-07
9.90546e-09
-2.47687e-08
-5.04372e-08
9.61545e-09
3.13593e-09
-1.8593e-08
2.50666e-08
-6.16633e-08
-1.24356e-08
8.07069e-08
-3.23994e-08
8.2291e-08
2.56924e-08
-1.8848e-08
-1.74436e-08
-8.41625e-08
9.05758e-08
-2.66184e-08
4.41472e-08
-1.53067e-09
-9.49849e-08
2.1783e-07
-4.12307e-09
9.65033e-08
1.8308e-07
-1.36476e-07
-8.01327e-08
1.10472e-07
-1.40752e-07
-1.69262e-07
8.80147e-08
-1.00467e-09
-6.16724e-08
3.96716e-09
-8.81035e-10
-3.31145e-09
2.2278e-09
3.50976e-09
-9.05467e-09
4.91122e-09
-1.0349e-08
-5.34818e-09
8.1389e-09
-8.91955e-09
-2.12276e-08
1.77227e-08
-4.29423e-08
1.15698e-08
-2.095e-08
-3.26592e-08
3.68202e-09
1.79819e-08
4.26968e-09
-3.38584e-08
-1.65509e-08
-6.42984e-10
-1.77128e-09
-7.07097e-08
3.97092e-08
-4.69158e-10
1.14397e-10
-5.32356e-10
1.13026e-09
-3.45533e-09
-5.46187e-10
-5.67365e-11
-2.49235e-09
1.53784e-09
-7.60004e-09
2.77761e-09
-9.8852e-09
-9.42392e-10
2.86608e-09
-1.99726e-08
-2.48064e-10
1.42517e-08
3.59105e-09
-2.65551e-08
4.06712e-09
-2.6777e-08
1.85835e-09
-1.56406e-09
-3.75775e-08
5.58666e-08
-1.57129e-08
-5.46607e-09
-1.4229e-08
6.35208e-09
2.92864e-10
1.19641e-09
1.08413e-09
-2.18979e-09
-7.56493e-10
1.98964e-09
8.24581e-10
-4.20889e-09
-1.18675e-09
4.891e-09
2.78793e-09
-6.02521e-10
-5.25958e-10
3.59311e-09
4.55504e-09
1.97217e-09
-3.39682e-09
-1.43053e-10
1.93127e-09
-1.83599e-08
2.5771e-08
1.65268e-09
-5.71905e-09
8.47249e-09
-1.76487e-09
-8.70973e-09
8.64319e-09
3.1705e-09
-3.28616e-09
-6.38449e-10
3.30544e-09
7.07407e-09
-2.84196e-09
5.45867e-10
6.1519e-10
-4.76665e-09
3.20888e-09
2.32819e-09
5.58064e-10
-1.84955e-09
-6.44715e-10
2.51476e-09
-1.2804e-08
2.78929e-08
-4.00966e-08
3.17056e-08
7.24551e-09
-7.37402e-09
7.62613e-09
-4.21481e-09
-6.91811e-09
1.19306e-08
-5.3299e-08
4.95195e-08
4.2884e-09
4.74609e-09
-9.86865e-09
8.52829e-09
-2.83512e-09
-5.57728e-09
4.22325e-09
-2.83023e-09
-1.97941e-09
7.06931e-09
-3.92157e-09
-7.95639e-09
2.47954e-09
-3.2224e-09
2.26044e-09
-5.29919e-09
4.16192e-09
-6.73466e-09
4.84393e-09
5.68999e-09
-1.36568e-08
2.43384e-08
-1.93184e-09
-2.99084e-09
-3.63072e-09
7.34116e-09
1.39558e-08
-5.59959e-08
-5.47242e-08
1.84047e-08
-3.6733e-08
-5.94724e-09
-4.56974e-08
7.10402e-09
-8.00682e-09
-2.99037e-08
7.32498e-09
-1.43259e-08
-1.01359e-08
-8.72487e-09
-2.55196e-10
-3.64057e-11
4.38662e-09
-9.70989e-09
6.93865e-09
-6.25078e-09
-4.90904e-09
7.65023e-10
-4.13259e-09
2.48021e-08
2.90164e-08
-2.80952e-08
-1.73843e-07
2.15719e-08
9.50171e-08
3.36027e-08
7.97872e-09
1.07931e-07
-5.26049e-08
1.81832e-07
6.63398e-09
1.59899e-07
-2.67969e-08
1.37076e-08
3.43785e-08
-1.55277e-08
1.02036e-07
-1.73279e-08
8.57835e-08
-2.25753e-09
1.8786e-07
-8.1261e-09
-5.74261e-08
5.56936e-08
1.67727e-07
-5.29135e-07
1.16074e-08
1.04741e-07
-1.37317e-07
5.45571e-07
-2.95324e-08
9.09021e-08
1.24714e-07
-1.06214e-07
-1.23174e-07
6.45905e-08
-9.51857e-08
-1.28593e-07
-1.74088e-07
-7.06462e-08
-5.40136e-08
-1.24467e-07
-1.8076e-07
1.93135e-07
-1.19234e-07
1.51539e-07
-1.65846e-07
1.98406e-09
-1.18956e-07
9.05851e-09
-7.81804e-09
4.32828e-09
6.44291e-09
-1.81519e-08
3.51963e-08
-1.42204e-07
-1.96197e-08
1.22504e-08
-1.25035e-08
1.93055e-08
-1.6205e-07
3.64784e-08
-1.2421e-07
-9.81206e-08
2.58798e-08
-9.10366e-08
-1.91881e-08
-2.37289e-07
1.85705e-07
-1.05398e-07
-1.24021e-07
-1.0718e-07
6.79846e-08
-2.12829e-07
3.5881e-09
-9.07295e-09
2.11434e-08
-4.87838e-08
4.23835e-08
-9.28632e-08
-1.43787e-07
5.43157e-08
2.72041e-08
-4.51539e-08
6.06279e-08
4.21519e-08
-3.00514e-07
5.01291e-08
7.06424e-08
1.51933e-07
-1.36923e-07
2.811e-07
-8.56107e-08
-1.68364e-07
7.15237e-09
-6.65612e-08
1.00711e-08
3.54035e-08
1.11819e-08
-7.03376e-08
-1.85251e-08
1.24299e-07
-1.4619e-07
3.36848e-08
8.01058e-08
1.84943e-07
8.52075e-08
-2.39942e-08
1.62101e-08
1.32602e-07
1.16198e-07
7.76861e-09
3.89298e-08
-4.82291e-08
1.5482e-07
-3.34134e-08
9.6424e-08
1.86377e-09
-1.54337e-08
-6.40149e-08
3.80109e-08
-6.75533e-08
-1.39893e-07
6.66942e-08
4.4285e-08
1.40512e-07
1.21628e-07
-1.74125e-07
-1.57264e-07
2.96771e-07
-1.40955e-07
-3.42367e-09
8.09352e-08
-2.6676e-09
6.65936e-10
-1.77894e-09
3.56156e-09
-9.27053e-09
-2.02093e-09
-6.06472e-10
-6.97346e-09
5.98284e-09
-1.87127e-08
9.94147e-09
-2.15303e-08
-6.86112e-09
1.01539e-08
-4.65189e-08
-3.7112e-09
3.37717e-08
1.20013e-08
-6.31319e-08
1.23053e-08
-6.0966e-08
5.22873e-09
-3.45701e-09
-6.56286e-08
1.37583e-07
-1.67308e-08
-1.59757e-09
-2.97879e-08
1.16411e-08
-8.24243e-09
-3.28426e-09
6.59306e-10
4.07359e-10
-1.59902e-09
-2.73602e-09
1.01786e-09
-1.73716e-09
4.59164e-10
-3.25192e-09
-1.15087e-09
-6.82167e-10
2.06191e-09
-2.8778e-09
-6.78415e-09
2.7793e-09
2.23892e-09
-1.49034e-08
6.81364e-09
-2.77286e-08
2.91909e-08
6.05792e-09
-3.54969e-08
3.00719e-09
-3.71409e-10
-2.25928e-08
1.03662e-09
-5.22077e-09
2.32328e-09
-2.64802e-08
-1.81014e-08
9.32724e-09
-1.37831e-09
-4.19253e-08
2.90747e-08
1.78468e-08
-4.46532e-10
5.71465e-09
1.28199e-10
-4.35357e-09
1.43026e-08
-1.57738e-09
-8.71115e-11
6.85259e-10
-6.87132e-09
-2.01091e-09
8.52006e-09
6.116e-09
-3.05437e-09
1.22684e-09
-3.76455e-09
-5.59997e-10
3.79859e-09
2.78625e-09
-3.13036e-09
-1.62549e-09
5.15968e-09
-1.32582e-09
-5.07452e-10
1.12361e-08
1.61876e-08
5.56485e-09
-3.82501e-09
-2.6914e-09
8.76056e-09
1.78514e-08
7.0416e-09
5.84005e-09
-5.17498e-09
5.13617e-09
1.75271e-09
-1.10138e-08
6.59015e-09
5.58526e-09
8.05724e-10
-2.52748e-09
-1.95326e-09
7.43967e-09
2.76547e-09
-2.68819e-09
-4.11782e-10
1.77111e-09
3.70579e-09
-1.46199e-09
2.70959e-10
-1.88953e-08
6.3012e-09
2.17737e-08
1.43273e-08
-4.43809e-09
-8.73489e-09
7.00922e-09
-5.17941e-09
7.68282e-09
-2.49497e-09
-2.81163e-08
2.8234e-08
1.18129e-08
5.98123e-08
-3.8409e-08
2.30623e-08
9.91772e-09
-2.67782e-09
1.13293e-08
-1.14508e-08
8.58569e-09
-8.97768e-09
4.84684e-09
-1.09939e-08
8.42064e-09
-1.01597e-08
9.80276e-09
1.30939e-08
-2.5163e-08
5.80327e-09
-8.77285e-10
-8.14838e-09
2.5915e-09
-1.18486e-09
-6.70584e-09
6.39482e-10
-4.475e-09
-2.89914e-09
6.03977e-09
-9.25465e-09
-1.04419e-08
-1.83344e-08
-1.53741e-07
1.69084e-07
2.33853e-08
-2.43797e-08
-1.32114e-08
-3.79192e-08
8.95477e-09
-2.3002e-08
6.0376e-09
-5.97418e-08
-1.98046e-08
-1.31653e-08
-7.06972e-09
-5.50094e-09
9.98899e-09
-1.44273e-08
1.43385e-08
-1.74263e-08
-1.18878e-08
3.58431e-09
-1.27844e-08
-9.374e-09
2.49766e-09
1.96731e-09
-4.20344e-09
4.46252e-09
-4.39167e-09
-9.1115e-09
3.66999e-08
1.7894e-08
-4.84288e-08
4.19056e-08
1.94003e-07
4.31558e-08
-1.42142e-07
1.32385e-07
4.97569e-08
9.16415e-08
-6.89782e-08
1.12312e-07
1.08194e-07
1.1468e-07
1.78662e-08
9.09047e-08
-8.95227e-08
9.0061e-08
9.31628e-08
-3.2063e-08
1.19018e-07
-9.50814e-08
-3.35833e-09
5.58662e-08
-4.43023e-08
1.59521e-07
1.98263e-07
-3.08322e-08
-1.88075e-07
3.2251e-08
-1.53573e-07
2.07289e-07
1.89613e-08
1.6287e-07
-2.58463e-08
-2.24584e-07
5.40517e-07
2.24064e-09
9.59563e-08
-9.6501e-08
-1.51384e-07
1.78952e-07
6.33334e-08
-1.21855e-07
-1.13098e-07
-1.14604e-07
1.21487e-07
3.14e-08
8.12946e-09
-1.68123e-07
-6.85339e-08
-1.9097e-07
8.54159e-08
-1.03242e-07
7.53716e-08
-1.53928e-07
-1.02203e-07
3.61842e-08
-5.09909e-09
-8.47029e-08
-5.25202e-08
-2.86225e-08
4.98794e-09
-1.19616e-07
-8.4248e-09
3.40415e-09
-5.46499e-09
8.3284e-09
-1.79437e-08
-3.66824e-09
-3.68956e-09
-1.2815e-08
-8.84385e-08
-1.38468e-07
-5.29203e-08
1.45952e-07
-8.07809e-08
1.69473e-08
-3.25409e-08
2.12683e-07
-1.43955e-08
-1.61809e-07
1.06877e-07
-4.53816e-08
-2.13168e-07
6.30656e-08
5.19822e-08
4.66297e-08
-1.33848e-07
4.11553e-08
-7.1564e-08
-8.71626e-08
-2.53435e-07
4.0857e-08
-1.24674e-07
-1.07855e-07
-1.48716e-07
1.82963e-07
-2.47076e-07
-4.85474e-08
3.04682e-07
-2.52546e-07
-9.75114e-09
-1.17821e-07
2.59769e-08
-3.69781e-08
-2.7841e-08
3.24424e-07
-3.30588e-07
-9.08697e-08
2.55897e-08
-1.74293e-08
1.04804e-07
7.58329e-08
7.58409e-08
-1.462e-07
2.83021e-07
-1.79976e-07
6.76738e-08
2.83608e-08
-1.29187e-07
5.41923e-08
-1.47318e-07
6.05242e-08
1.80849e-07
-2.08506e-07
9.82996e-08
-2.78258e-07
-1.0645e-07
2.99098e-07
-3.2661e-08
-1.50048e-08
-2.56101e-07
-1.78083e-07
8.17045e-08
2.8474e-08
-1.2172e-07
-1.81906e-07
1.26296e-08
-1.00646e-08
2.8075e-08
-9.76195e-08
1.4965e-07
2.32301e-07
9.66447e-08
-1.04429e-07
4.3217e-08
-1.6996e-08
1.06381e-07
2.48145e-08
1.346e-07
-2.21884e-08
8.59328e-08
1.09286e-07
-2.69552e-09
-3.28307e-07
1.64204e-07
1.30689e-07
-4.62164e-08
8.22648e-08
6.03757e-08
-2.239e-08
-2.19627e-08
-1.22633e-07
2.44873e-07
-9.09251e-11
-1.57244e-07
4.71335e-08
4.60958e-08
-1.08189e-07
2.67827e-07
-7.52005e-08
-1.53495e-08
1.38539e-07
-1.51502e-07
5.72476e-08
5.31347e-08
-8.87201e-08
1.79338e-07
-3.40026e-07
-3.17648e-08
2.28359e-10
1.50723e-08
-5.83675e-08
2.22218e-08
-2.11991e-08
-8.5992e-09
2.35158e-09
1.11807e-09
-4.84123e-09
-6.9219e-09
3.37536e-09
-4.70614e-09
1.51697e-09
-8.58618e-09
-3.51203e-09
-2.26071e-09
8.225e-09
-5.20382e-09
-1.9672e-08
1.02809e-08
1.12789e-08
-4.03108e-08
2.09548e-08
-6.75213e-08
6.76587e-08
1.84589e-08
-8.37709e-08
8.88785e-09
-1.35388e-09
-5.21771e-08
3.95017e-09
-1.17025e-08
6.90263e-09
-6.02134e-08
-2.99257e-08
9.43192e-09
2.2467e-09
-9.59815e-08
6.25686e-08
-3.88656e-09
-2.4462e-09
3.0485e-09
-9.58001e-10
-1.568e-09
9.26975e-10
6.44753e-10
-5.25971e-09
4.30159e-10
1.42949e-09
-5.11157e-09
-7.1254e-10
2.35063e-09
-2.32026e-09
2.11988e-09
-6.6651e-09
1.03667e-09
-5.60632e-09
-1.03338e-08
1.8123e-09
-1.18121e-08
-1.77288e-08
4.86064e-09
-4.20882e-08
1.73073e-09
3.66476e-08
3.30676e-09
-4.03258e-08
2.67664e-08
1.77694e-09
-3.37641e-08
2.23698e-09
7.93049e-09
-5.85575e-08
9.02711e-08
-2.23864e-08
3.3669e-09
-1.85258e-08
-1.02696e-08
-1.92133e-08
5.60213e-09
1.33624e-08
-8.02387e-09
-7.04115e-11
3.79961e-08
-1.34351e-09
-1.15837e-09
2.83369e-09
7.20613e-10
1.57035e-09
-3.86834e-09
-3.34808e-09
1.64536e-09
2.38798e-09
2.3122e-09
-7.88574e-09
1.10392e-08
-5.33246e-09
-2.89908e-09
8.89839e-09
1.22239e-09
-7.71875e-10
-6.28619e-09
7.3704e-09
-4.64153e-09
3.14293e-09
-1.0953e-09
4.29364e-09
1.41908e-09
-1.60309e-08
2.58479e-08
3.13476e-08
-9.29838e-09
1.62823e-08
4.55255e-09
-1.17379e-08
5.11308e-09
5.95267e-09
7.15095e-09
-3.53733e-09
3.74671e-10
1.39052e-07
-9.68041e-08
9.20038e-08
-5.69688e-09
1.48325e-08
5.0798e-09
-3.52541e-09
-1.52802e-09
5.17891e-09
4.39164e-09
-3.75642e-09
5.34247e-09
1.63552e-09
-1.23695e-08
8.04584e-09
4.04775e-09
-1.06069e-10
-2.17057e-09
2.41973e-10
4.07673e-09
-2.62464e-08
-1.84421e-08
2.57932e-08
2.70298e-08
1.81292e-08
-1.96867e-08
7.76757e-09
1.58943e-08
-1.72477e-08
5.02708e-09
-1.40945e-08
2.01069e-08
1.39322e-08
-1.05683e-08
4.44733e-09
1.38038e-08
8.13738e-09
-4.88953e-09
-7.59032e-08
1.07823e-07
2.28086e-08
2.09727e-08
5.47722e-08
8.09064e-09
2.20774e-08
-7.10575e-09
2.34279e-08
7.84363e-09
1.15763e-08
1.21655e-08
1.64196e-08
-2.69421e-08
1.42992e-08
1.63807e-10
-1.76374e-08
1.57638e-09
-1.55616e-09
-8.42262e-09
-9.67344e-10
-6.83964e-09
-1.71324e-09
1.24346e-08
-1.35918e-08
-1.79661e-08
5.45992e-09
-1.05406e-08
5.19464e-09
-1.45279e-08
-1.49965e-09
-9.68119e-09
5.99304e-09
-1.81468e-08
6.02605e-09
1.28009e-09
-1.77481e-08
-1.20722e-08
-1.95813e-08
-4.47763e-08
-7.72486e-09
1.4582e-08
-2.10478e-08
1.79304e-08
1.53097e-09
-1.4544e-08
-6.11287e-08
-4.62344e-08
-1.8684e-08
5.17668e-09
-3.80923e-08
-2.79467e-08
2.26143e-08
-2.72879e-08
-2.59181e-08
1.16256e-08
-2.95383e-08
-2.47462e-08
5.34406e-09
-1.85959e-09
-1.4412e-08
1.44575e-08
-8.36743e-09
1.20163e-08
-1.05253e-08
1.00665e-09
1.50912e-09
3.79597e-10
7.87118e-11
4.29156e-09
-7.17422e-09
-1.41003e-07
1.44472e-07
1.44243e-08
-5.59413e-08
4.59677e-08
2.45737e-08
1.67136e-07
9.22175e-09
-1.46919e-07
2.50518e-07
4.59434e-09
2.36279e-08
1.57309e-07
6.8196e-08
-2.09825e-07
1.44714e-07
1.55173e-07
-2.30665e-07
1.14003e-07
-6.97015e-08
1.21633e-07
-2.68835e-08
-3.17716e-08
-2.01034e-08
2.11396e-07
1.95136e-07
-2.82887e-08
3.1416e-08
-5.49793e-08
2.93841e-07
-2.69694e-07
-2.56257e-07
1.77088e-07
-1.08905e-07
2.01048e-08
-1.34503e-07
1.46649e-07
1.67041e-07
2.71142e-08
1.31334e-08
-8.46611e-09
1.65629e-07
-1.38202e-07
2.11829e-07
-2.47996e-08
-2.41589e-08
2.46552e-07
-3.27377e-07
-2.86642e-07
1.08025e-07
1.35134e-07
1.68838e-07
1.00435e-07
1.3611e-07
-2.87686e-08
2.72907e-08
1.98855e-07
3.37394e-08
1.56918e-08
2.13566e-07
-2.0605e-08
-2.47737e-08
1.60706e-07
-8.36566e-08
2.79867e-07
-1.32877e-07
3.10323e-08
-3.04397e-07
5.62695e-08
2.26303e-07
-2.74943e-07
-1.19483e-07
-3.04682e-08
8.2972e-08
-2.43473e-07
-2.15621e-07
-9.58701e-08
-1.04637e-07
9.72647e-08
2.43422e-07
-1.12966e-07
-5.50848e-08
-4.28798e-08
-1.0606e-07
-1.37504e-07
-1.7219e-08
7.65138e-08
-2.85321e-08
-9.59605e-08
-9.30203e-08
-3.50201e-08
3.71566e-08
-3.86148e-08
-1.63367e-08
3.73563e-09
6.17592e-10
-8.70014e-09
4.12264e-08
-8.58183e-08
-9.93129e-09
8.46294e-09
-1.31e-08
-4.7668e-08
-4.90206e-08
4.84739e-09
-1.69513e-08
-5.82133e-09
-6.77008e-09
-5.26426e-08
4.27889e-08
-7.85849e-08
3.60422e-08
-2.85585e-08
-1.00515e-07
1.01032e-07
-8.12982e-08
-9.33191e-08
2.76864e-10
2.50412e-08
-4.9634e-08
-5.34031e-08
-5.28888e-08
-1.74186e-07
7.61623e-08
1.13188e-07
-1.8397e-07
-1.66826e-07
1.14172e-07
-5.16116e-10
-9.02441e-08
1.31916e-07
2.21221e-08
1.56051e-07
-2.51101e-07
1.84103e-07
2.06981e-08
-1.19219e-08
-1.44059e-07
-7.64413e-08
-2.65764e-08
-3.15169e-07
-8.14354e-08
-1.32964e-07
-6.12983e-08
-4.0045e-08
-6.69421e-08
4.06628e-08
2.80394e-08
-9.53994e-08
4.73078e-08
-1.45064e-07
-2.59539e-07
-4.54596e-08
1.35149e-07
3.91734e-08
-1.73293e-07
9.89036e-08
-1.6927e-07
-1.50312e-07
-2.41039e-07
2.11375e-07
-2.92112e-07
1.70161e-07
2.14538e-08
-6.60414e-09
-1.22369e-07
1.76045e-07
2.88792e-10
-6.21337e-08
3.45224e-08
-4.08433e-07
1.65405e-07
1.8611e-07
-8.75212e-08
1.6012e-07
-1.25239e-08
-4.7548e-07
1.86717e-07
3.64714e-07
-2.54536e-07
-1.0412e-07
1.08735e-08
-2.45234e-08
-1.39478e-07
-2.9799e-08
1.57539e-08
-1.23036e-07
-1.70997e-07
-7.26982e-08
1.46075e-07
-9.45797e-10
-4.99885e-08
2.00585e-07
2.87496e-08
-1.58009e-07
-1.61142e-07
1.03846e-07
5.14172e-08
-2.5461e-07
1.86196e-07
-3.79293e-08
1.43365e-07
-5.26238e-08
1.39722e-07
7.39144e-08
2.29799e-08
-1.09616e-08
7.18444e-08
1.62998e-07
-2.41877e-07
1.33752e-07
2.38814e-07
-3.05893e-08
-6.20667e-08
1.53032e-07
-7.12333e-08
6.90702e-08
-1.97996e-08
1.98595e-07
-2.49548e-08
-1.24243e-08
5.02198e-09
-1.84712e-07
1.22619e-07
-1.85472e-08
1.41358e-07
-4.05131e-08
1.09617e-07
-6.7719e-08
-2.19598e-08
5.67941e-08
1.46054e-08
2.32814e-07
2.34719e-07
-2.88195e-07
8.14828e-08
2.4567e-07
-2.29786e-07
-1.56557e-08
4.02088e-07
-1.54203e-07
1.19918e-08
-1.87967e-07
1.19854e-07
-1.29679e-08
-6.53142e-09
7.01357e-09
-4.78281e-09
-2.96895e-09
1.95253e-09
3.49802e-09
-1.27632e-08
1.48007e-09
2.49914e-09
-1.21352e-08
-2.21727e-09
4.83452e-09
-5.5905e-09
8.00234e-09
-1.42756e-08
4.17807e-09
-1.94165e-08
-2.40357e-08
6.65686e-09
-2.59976e-08
-4.63682e-08
1.57262e-08
-9.61791e-08
1.54265e-09
8.30599e-08
1.0445e-08
-9.1552e-08
6.06154e-08
5.91651e-09
-7.64575e-08
7.2174e-09
1.78661e-08
-1.00653e-07
2.2202e-07
-2.16643e-08
9.84347e-09
-4.18427e-08
-7.63956e-09
-4.07142e-08
-2.57628e-09
-1.43792e-09
2.5563e-08
-1.62343e-08
-6.28028e-09
9.84244e-10
1.20125e-10
-1.77393e-10
1.31882e-09
-5.14904e-09
-8.56552e-11
-2.67529e-09
-2.51726e-09
1.18125e-09
1.08345e-09
-1.38133e-10
-7.61042e-09
9.9612e-10
-1.84145e-08
6.38788e-10
1.84014e-09
-1.28127e-08
3.15832e-09
2.12766e-09
-2.30148e-08
4.52799e-09
-4.34579e-08
5.97404e-08
7.2245e-09
-6.52342e-08
6.76307e-09
1.26515e-08
2.05336e-09
-2.7887e-08
-2.42388e-08
1.38687e-08
3.66614e-09
-4.6502e-08
2.43101e-08
-2.28914e-09
-3.89159e-08
2.19918e-08
6.36497e-08
-4.46852e-08
6.25723e-08
4.55647e-09
-2.50313e-09
3.58655e-09
1.02986e-08
-2.85507e-09
-8.06641e-09
-5.70038e-09
3.24689e-09
6.93253e-09
3.03459e-08
-3.2125e-09
1.33135e-09
-2.81171e-09
-1.07691e-07
1.1423e-07
1.0699e-08
-1.07499e-08
8.191e-09
1.62884e-09
2.79157e-09
-6.04432e-09
4.12169e-10
4.86028e-09
-1.09814e-08
2.44093e-08
-4.10766e-09
1.05469e-08
-4.46182e-10
-1.3045e-09
-8.7819e-08
8.18953e-08
6.51616e-08
2.30488e-08
-2.63173e-08
1.95509e-08
-2.45706e-08
5.21719e-08
1.23469e-09
4.27271e-09
-5.5456e-09
1.62816e-08
-3.81637e-08
9.97879e-08
8.21162e-08
-1.69959e-08
3.82556e-08
-1.36954e-08
-9.47808e-09
3.42495e-08
-1.13971e-10
-9.21926e-09
7.44335e-09
5.26144e-09
-2.09496e-09
1.90636e-09
-1.04396e-09
1.18898e-08
-2.44349e-10
-6.09914e-09
9.97457e-10
4.87781e-09
7.97496e-09
1.04661e-09
-4.94484e-09
1.31971e-08
-1.17318e-08
2.4328e-08
2.19587e-08
-1.41277e-08
1.02982e-08
1.81014e-08
-2.18938e-08
9.32543e-09
1.16392e-08
2.16917e-08
1.94628e-09
-2.65864e-08
-8.75003e-09
3.20883e-09
-2.24661e-09
-1.14885e-08
1.21695e-09
4.03381e-08
-5.93272e-08
3.48353e-08
3.82957e-08
-8.65788e-09
2.46389e-08
-2.14703e-09
-1.21654e-08
8.45556e-09
1.02894e-07
1.56446e-08
-1.07155e-08
-1.08251e-07
1.0912e-07
1.9704e-07
-5.95681e-08
6.48051e-08
1.68405e-08
6.25188e-08
3.32692e-08
2.94127e-09
-3.90814e-08
2.97304e-08
4.66511e-08
-1.58532e-08
6.20032e-08
-1.18233e-08
1.38791e-08
-1.65633e-08
1.58707e-08
-2.46589e-08
1.15049e-08
-2.55038e-08
-9.80465e-09
-6.95726e-09
1.00663e-08
-1.93783e-08
5.68991e-09
2.12804e-09
-2.45039e-08
7.3649e-09
-7.85609e-10
-1.71199e-08
9.04701e-09
6.32064e-09
-2.98955e-08
-2.63562e-09
-7.18753e-10
-6.32682e-09
9.22953e-10
-1.55329e-08
-3.53686e-09
3.94705e-09
-1.32875e-08
-8.40759e-09
5.10346e-11
-3.12078e-08
2.4742e-08
1.09621e-07
-1.77764e-08
-3.18902e-08
-1.33775e-09
-3.05619e-08
-2.53901e-08
-9.03796e-09
1.08958e-08
-3.99502e-08
-4.82114e-08
-6.57018e-08
2.9376e-08
-3.92544e-08
1.12386e-08
-2.26485e-08
-3.1379e-08
2.78805e-08
-1.15823e-08
2.42003e-08
-2.84995e-08
-8.82097e-10
-2.05086e-09
5.74675e-09
-5.17584e-09
1.62353e-08
-2.23621e-08
-5.4232e-09
1.12125e-09
5.30861e-09
4.67028e-09
2.55345e-09
-7.14501e-09
-1.09623e-08
6.63584e-09
-2.84781e-09
-1.27825e-07
1.35534e-07
-1.69215e-07
6.59638e-08
1.848e-07
-4.24641e-08
1.81258e-07
1.27641e-08
-1.7137e-07
3.20678e-07
1.29922e-07
5.03671e-08
-1.98509e-08
-5.62488e-08
1.44296e-07
-6.66608e-08
2.01983e-07
1.37467e-07
1.03802e-07
-1.13605e-09
1.08731e-07
-3.53718e-07
4.83935e-08
2.77036e-07
-2.28202e-07
2.7567e-07
-1.60522e-08
-3.09757e-07
2.49881e-07
-7.39923e-08
-2.03055e-08
-1.75396e-07
3.48361e-07
4.65165e-08
-2.1779e-07
-2.09089e-07
2.61911e-08
1.24873e-07
-1.13235e-07
5.19797e-08
1.61878e-07
7.73254e-08
-1.58878e-07
1.56678e-07
2.20845e-08
-3.91691e-08
3.84343e-08
-2.12865e-07
-2.32574e-08
2.11964e-07
3.37281e-07
-3.03595e-07
8.75361e-08
-3.06888e-07
7.66538e-08
1.62281e-07
-1.59485e-07
2.38498e-07
8.98253e-08
-2.5739e-07
2.4777e-07
1.10055e-07
-1.85278e-07
3.02981e-07
1.84072e-08
-4.82618e-08
-3.57724e-07
3.77217e-07
2.57869e-07
4.50922e-08
-1.83957e-07
1.97534e-07
-9.82152e-09
1.82191e-07
-7.30655e-08
1.27147e-07
1.43657e-07
-3.94268e-07
3.21232e-07
3.8421e-08
-1.35105e-07
-1.04781e-07
2.93707e-09
-2.87183e-07
1.33337e-07
2.97284e-08
-1.06796e-07
-4.69984e-08
-1.14756e-07
-2.18282e-07
6.83309e-08
-1.86235e-07
5.35859e-08
-9.2215e-08
-5.39937e-08
-1.34624e-07
9.5146e-08
-7.34874e-08
-1.36511e-07
-1.04809e-07
9.04742e-08
-9.21277e-08
5.98976e-08
-2.00978e-07
-1.0988e-08
7.49729e-08
-1.20724e-07
-1.37387e-07
-1.99967e-08
-3.31749e-08
-1.13342e-07
-2.77606e-08
-1.67664e-08
1.52225e-08
-5.28717e-08
-4.82166e-10
-1.29445e-08
-5.63032e-11
-1.33712e-07
3.34162e-10
4.756e-08
-1.44228e-07
1.8978e-08
1.10918e-08
-2.04169e-08
1.97033e-07
-1.16767e-07
-1.29286e-07
3.9698e-09
6.24204e-08
-6.15428e-08
-2.24205e-09
6.17969e-09
-1.94088e-08
4.23112e-09
-3.18916e-09
-1.00293e-08
-1.33938e-07
2.67941e-08
-1.2207e-08
-1.32856e-07
5.18924e-08
7.6615e-08
-1.44893e-07
2.22001e-08
-2.31689e-08
-1.23038e-07
-9.71913e-08
3.15586e-07
-2.57978e-07
-1.10496e-07
-6.68724e-08
1.66138e-07
1.31562e-07
-1.09605e-07
1.17988e-07
1.12132e-07
3.85429e-09
-4.82309e-07
2.67447e-08
1.728e-07
-2.11467e-07
-1.28436e-07
1.93882e-07
-9.20222e-08
-1.44977e-07
-2.10237e-07
1.33825e-07
-3.43697e-07
-1.49274e-07
6.84504e-08
1.95251e-08
-1.01182e-07
-1.15034e-07
9.65542e-08
-1.69696e-07
1.02134e-08
-5.52428e-08
-4.6192e-08
-3.57208e-07
-4.84093e-08
1.50295e-08
-1.05027e-07
-9.5338e-08
2.71531e-07
-2.21652e-07
1.08388e-07
-4.26778e-07
3.57563e-07
3.44783e-08
-1.89447e-07
-2.59796e-09
6.64758e-08
-2.92025e-07
5.62785e-08
-2.6527e-07
9.0707e-08
-2.15708e-07
-4.8396e-08
-2.6637e-07
-4.28854e-09
-1.85025e-07
1.63463e-07
2.34208e-08
-1.83043e-07
-1.9769e-07
2.30006e-07
-9.44497e-08
3.1892e-07
2.43556e-07
-3.97071e-07
-2.98562e-08
2.61255e-07
-2.75573e-07
1.27992e-07
1.35058e-07
-2.86546e-07
-2.04995e-07
-3.86675e-08
1.17898e-07
1.2877e-08
-1.49382e-07
-2.1904e-07
3.31818e-08
1.4462e-08
1.46869e-07
-5.07815e-08
2.33165e-07
-3.83056e-09
-1.28046e-07
7.38839e-08
-4.69427e-08
1.9521e-07
-1.63347e-08
1.0345e-07
8.82478e-08
4.05122e-08
7.80509e-08
8.20413e-08
-1.56752e-07
1.73916e-07
1.45833e-07
2.33394e-07
-2.29601e-07
-7.88918e-08
1.82055e-07
6.52887e-08
1.73433e-07
9.26436e-11
-9.6608e-08
1.03612e-07
2.24207e-07
6.87574e-09
-3.20523e-08
-1.83092e-08
-3.84466e-08
1.40433e-07
-4.99355e-08
1.25564e-08
-1.77746e-07
4.02634e-07
2.15389e-09
2.90204e-07
2.6601e-08
-1.94186e-07
6.26179e-09
2.65395e-07
6.57984e-08
1.23694e-07
1.26071e-07
-8.15414e-08
1.85653e-07
6.81215e-08
1.67691e-07
-1.62758e-07
-5.09909e-07
1.94046e-07