/*--------------------------------*- C++ -*----------------------------------*\
  =========                 |
  \\      /  F ield         | OpenFOAM: The Open Source CFD Toolbox
   \\    /   O peration     | Website:  https://openfoam.org
    \\  /    A nd           | Version:  12
     \\/     M anipulation  |
\*---------------------------------------------------------------------------*/
FoamFile
{
    format      ascii;
    class       volScalarField;
    location    "32";
    object      Ta;
}
// * * * * * * * * * * * * * * * * * * * * * * * * * * * * * * * * * * * * * //

dimensions      [0 0 0 0 0 0 0];

internalField   nonuniform List<scalar> 
143879
(
6.31839e+09
8.3238e+09
6.74925e+09
6.35386e+09
8.37245e+09
8.8841e+09
7.58024e+09
6.58568e+09
6.73763e+09
6.59099e+09
6.36976e+09
8.3572e+09
8.88057e+09
7.68674e+09
8.7662e+09
8.35316e+09
6.01297e+09
8.51877e+09
6.53731e+09
6.58417e+09
6.5966e+09
6.69988e+09
6.57025e+09
6.5691e+09
6.84584e+09
8.09866e+09
8.87345e+09
7.86255e+09
8.76686e+09
8.36873e+09
6.13112e+09
8.47293e+09
8.71183e+09
8.69478e+09
8.19915e+09
7.36513e+09
8.17452e+09
6.49183e+09
6.54443e+09
6.55751e+09
6.59338e+09
6.603e+09
6.55359e+09
6.82352e+09
6.57802e+09
6.54707e+09
6.5622e+09
6.54328e+09
6.50732e+09
6.8528e+09
7.77294e+09
8.14511e+09
8.23329e+09
8.3401e+09
8.769e+09
8.37044e+09
7.97273e+09
6.30554e+09
8.36295e+09
8.71154e+09
8.69411e+09
8.19714e+09
7.4336e+09
8.11665e+09
8.70692e+09
8.68265e+09
8.31502e+09
7.71404e+09
6.31858e+09
7.51082e+09
6.73082e+09
6.49381e+09
6.59833e+09
6.6076e+09
6.74146e+09
6.90396e+09
6.62382e+09
6.56613e+09
6.81951e+09
6.77942e+09
7.53003e+09
6.66518e+09
6.5714e+09
6.54582e+09
6.52298e+09
6.50936e+09
6.50204e+09
6.51075e+09
6.42697e+09
7.68628e+09
8.02953e+09
7.6905e+09
8.19284e+09
8.25218e+09
8.2762e+09
8.00464e+09
8.15026e+09
8.71063e+09
8.3476e+09
8.68071e+09
7.91594e+09
8.14316e+09
7.5129e+09
7.86958e+09
6.58305e+09
7.56923e+09
7.92641e+09
7.96636e+09
8.70578e+09
8.67542e+09
8.31176e+09
7.71342e+09
6.35893e+09
7.50878e+09
8.69395e+09
8.73736e+09
8.58737e+09
8.02788e+09
7.44712e+09
7.4764e+09
6.81836e+09
7.1718e+09
6.49546e+09
6.73336e+09
6.86179e+09
6.50337e+09
6.82763e+09
6.7573e+09
6.96094e+09
7.54551e+09
7.36227e+09
6.59619e+09
6.76348e+09
6.80765e+09
7.52888e+09
6.78807e+09
7.06986e+09
7.78496e+09
6.6207e+09
6.9077e+09
6.58336e+09
6.56088e+09
6.5656e+09
6.50612e+09
6.52829e+09
6.49594e+09
6.53382e+09
6.46165e+09
6.51593e+09
7.49389e+09
7.52352e+09
8.0559e+09
7.96813e+09
7.86223e+09
8.20844e+09
8.19926e+09
8.27999e+09
8.01306e+09
7.9126e+09
8.16179e+09
8.70172e+09
8.49981e+09
8.07298e+09
8.27735e+09
8.26058e+09
8.63894e+09
8.25536e+09
7.78936e+09
7.92968e+09
7.66005e+09
7.48553e+09
7.81162e+09
7.13084e+09
7.60242e+09
6.43521e+09
7.81456e+09
7.66699e+09
7.46419e+09
8.6915e+09
8.73681e+09
8.55781e+09
7.99793e+09
7.44964e+09
7.46168e+09
6.84058e+09
7.13877e+09
8.82682e+09
8.68873e+09
8.72693e+09
8.62731e+09
8.13255e+09
7.62522e+09
7.13095e+09
7.15937e+09
6.28597e+09
6.71483e+09
8.07851e+09
6.52249e+09
7.14697e+09
6.75637e+09
6.88483e+09
7.29327e+09
6.82759e+09
7.16941e+09
7.56092e+09
7.39319e+09
8.07748e+09
7.59632e+09
7.50261e+09
6.61177e+09
6.85288e+09
6.67495e+09
7.48108e+09
6.82852e+09
7.0656e+09
7.78551e+09
7.04254e+09
7.26936e+09
7.78238e+09
6.97206e+09
6.647e+09
6.59989e+09
6.63642e+09
7.20953e+09
6.59606e+09
6.53883e+09
6.50257e+09
6.58746e+09
6.45732e+09
6.53078e+09
6.43377e+09
6.54155e+09
7.34389e+09
8.54807e+09
7.73623e+09
7.5424e+09
8.61179e+09
7.67194e+09
7.97154e+09
7.17701e+09
8.25771e+09
8.24164e+09
8.39551e+09
7.77954e+09
7.62465e+09
7.85967e+09
7.91786e+09
8.53062e+09
8.6804e+09
8.73913e+09
8.47803e+09
8.01919e+09
7.79745e+09
8.1224e+09
8.12272e+09
7.90789e+09
8.43664e+09
7.88298e+09
7.77464e+09
7.55078e+09
7.25176e+09
7.41083e+09
7.39228e+09
7.00883e+09
7.70172e+09
7.71456e+09
7.70829e+09
6.83013e+09
7.5227e+09
7.09707e+09
6.40959e+09
6.89754e+09
7.35627e+09
7.26287e+09
7.20212e+09
7.07685e+09
8.81281e+09
8.68662e+09
8.72351e+09
8.58804e+09
8.09317e+09
7.60647e+09
7.12052e+09
7.14649e+09
6.36257e+09
6.71424e+09
8.61044e+09
8.69467e+09
8.68825e+09
8.76645e+09
8.5075e+09
7.89669e+09
7.25686e+09
6.78284e+09
7.05003e+09
6.47125e+09
6.53818e+09
8.1265e+09
7.28545e+09
6.73796e+09
7.14844e+09
7.31091e+09
7.00768e+09
7.29156e+09
7.49617e+09
7.26875e+09
7.52518e+09
7.4682e+09
8.0788e+09
7.58106e+09
7.50375e+09
8.08859e+09
7.85352e+09
7.75858e+09
6.66112e+09
6.79665e+09
6.87752e+09
7.03918e+09
7.16117e+09
7.10173e+09
7.75735e+09
7.04407e+09
7.24687e+09
7.778e+09
6.83296e+09
7.16035e+09
7.48004e+09
7.9859e+09
6.68265e+09
7.48016e+09
6.75676e+09
6.6668e+09
6.63888e+09
6.58086e+09
6.5282e+09
6.46735e+09
6.57565e+09
6.44353e+09
6.57667e+09
6.38922e+09
6.48537e+09
7.22558e+09
7.94697e+09
8.60405e+09
7.70989e+09
8.77372e+09
8.31534e+09
8.28442e+09
7.33037e+09
7.94141e+09
8.23124e+09
7.85412e+09
8.45714e+09
7.80627e+09
7.56045e+09
7.55522e+09
7.55364e+09
7.72847e+09
7.89694e+09
8.59131e+09
8.36572e+09
8.66879e+09
8.77966e+09
8.6765e+09
8.50617e+09
8.71376e+09
8.37615e+09
8.55363e+09
8.13232e+09
7.77553e+09
7.41297e+09
7.92613e+09
7.65194e+09
8.12332e+09
8.46181e+09
7.96435e+09
7.73736e+09
7.52115e+09
7.52524e+09
7.41938e+09
7.29244e+09
7.17639e+09
7.11688e+09
7.073e+09
7.09091e+09
7.48081e+09
7.43901e+09
7.79127e+09
7.43737e+09
7.50632e+09
7.36132e+09
7.40736e+09
6.74501e+09
6.90127e+09
6.4613e+09
7.09874e+09
7.30041e+09
7.10585e+09
6.92327e+09
6.86059e+09
6.68637e+09
8.61352e+09
8.69555e+09
8.68574e+09
8.75351e+09
8.44607e+09
7.84053e+09
7.23497e+09
6.77865e+09
7.03474e+09
6.48068e+09
6.5296e+09
8.72669e+09
8.67409e+09
8.70463e+09
8.67307e+09
8.69004e+09
8.75202e+09
8.65254e+09
8.17453e+09
7.39243e+09
7.18015e+09
6.59632e+09
6.76384e+09
6.37568e+09
6.35347e+09
8.24059e+09
7.34879e+09
8.46093e+09
7.37087e+09
7.24403e+09
7.32224e+09
7.58549e+09
7.31639e+09
7.52092e+09
7.64259e+09
7.37177e+09
8.00763e+09
7.4885e+09
7.69058e+09
7.58877e+09
8.07206e+09
7.78906e+09
7.67682e+09
8.08431e+09
8.04644e+09
7.78546e+09
6.78777e+09
6.81579e+09
7.02418e+09
6.97473e+09
7.19814e+09
7.42109e+09
7.58024e+09
7.50828e+09
7.77576e+09
6.86514e+09
7.11158e+09
7.45287e+09
7.98914e+09
6.88893e+09
7.18546e+09
7.53574e+09
7.97752e+09
7.83567e+09
7.049e+09
6.63255e+09
6.6329e+09
6.61232e+09
6.51141e+09
6.45565e+09
6.64983e+09
6.39024e+09
6.50119e+09
6.37494e+09
6.50898e+09
7.39939e+09
8.10464e+09
8.51742e+09
8.4975e+09
8.30834e+09
8.48073e+09
8.00776e+09
8.2159e+09
8.32391e+09
7.56006e+09
7.94356e+09
7.95242e+09
7.48004e+09
8.50154e+09
7.56627e+09
7.51931e+09
8.13897e+09
7.90217e+09
7.49e+09
7.45583e+09
7.43012e+09
7.49839e+09
7.98102e+09
8.04967e+09
8.50004e+09
8.56051e+09
8.28065e+09
8.60882e+09
8.62683e+09
8.70049e+09
8.67789e+09
8.34831e+09
8.54992e+09
8.69488e+09
8.39026e+09
7.86106e+09
7.72304e+09
7.51531e+09
7.42609e+09
7.39347e+09
7.626e+09
7.46936e+09
7.95687e+09
7.69202e+09
8.35123e+09
8.30312e+09
7.65581e+09
7.70627e+09
7.55711e+09
7.33474e+09
7.2568e+09
7.16457e+09
7.359e+09
7.24491e+09
7.33628e+09
6.86293e+09
7.12644e+09
6.87119e+09
6.82442e+09
6.74335e+09
6.80716e+09
6.97704e+09
7.34311e+09
7.55032e+09
7.29435e+09
7.27736e+09
7.31785e+09
6.97764e+09
6.9078e+09
6.82215e+09
6.75614e+09
6.42103e+09
6.48692e+09
7.11105e+09
6.94659e+09
7.08901e+09
6.91631e+09
6.80436e+09
6.63162e+09
6.78775e+09
6.50365e+09
8.68046e+09
8.67469e+09
8.70755e+09
8.67207e+09
8.69038e+09
8.73666e+09
8.60258e+09
8.1178e+09
7.35551e+09
7.15225e+09
6.59018e+09
6.75421e+09
6.38598e+09
6.34968e+09
8.63531e+09
8.65909e+09
8.74927e+09
8.68948e+09
8.68771e+09
8.75511e+09
8.61041e+09
8.07928e+09
7.17219e+09
6.75203e+09
6.43532e+09
6.62956e+09
6.30242e+09
6.3329e+09
6.24391e+09
8.37472e+09
7.81181e+09
8.51447e+09
7.4215e+09
7.68054e+09
7.5942e+09
7.56658e+09
7.60273e+09
7.69633e+09
7.66913e+09
7.68905e+09
7.7304e+09
7.33924e+09
7.39914e+09
7.57631e+09
8.00786e+09
7.63375e+09
8.1523e+09
7.93475e+09
7.60421e+09
8.07046e+09
7.97891e+09
7.73881e+09
8.16942e+09
8.10376e+09
7.97097e+09
6.83397e+09
6.89169e+09
6.9565e+09
6.89912e+09
7.02635e+09
6.81751e+09
7.05208e+09
7.44206e+09
7.61143e+09
7.57007e+09
8.02198e+09
7.56177e+09
7.4244e+09
7.66852e+09
7.96909e+09
6.89688e+09
7.11739e+09
7.48191e+09
7.98435e+09
6.64727e+09
6.95532e+09
7.38073e+09
7.81386e+09
8.0798e+09
6.70483e+09
6.60237e+09
6.64002e+09
6.66165e+09
6.53598e+09
6.5255e+09
6.47938e+09
6.39538e+09
6.53049e+09
6.37358e+09
6.53057e+09
6.37795e+09
6.37642e+09
6.3693e+09
8.46721e+09
8.56034e+09
8.38179e+09
8.51305e+09
8.03739e+09
8.33747e+09
8.39369e+09
7.45128e+09
7.73804e+09
7.63872e+09
7.42412e+09
8.29998e+09
8.30107e+09
7.54502e+09
7.69932e+09
7.4699e+09
7.3401e+09
7.45269e+09
7.23146e+09
8.27772e+09
7.94411e+09
8.12073e+09
7.96027e+09
7.59608e+09
7.5852e+09
8.26055e+09
7.26764e+09
7.40938e+09
7.4423e+09
7.56846e+09
7.88559e+09
8.07552e+09
7.9215e+09
8.39733e+09
8.55372e+09
8.42693e+09
8.42929e+09
8.08177e+09
8.62077e+09
8.64493e+09
8.68051e+09
8.51849e+09
8.71629e+09
8.64925e+09
8.66885e+09
8.69004e+09
8.10219e+09
8.52161e+09
8.43678e+09
8.55399e+09
8.67771e+09
7.72579e+09
7.86281e+09
7.41004e+09
7.81413e+09
7.33375e+09
7.32653e+09
7.62763e+09
7.46296e+09
7.92182e+09
7.74838e+09
7.61996e+09
8.07803e+09
8.10162e+09
8.48077e+09
7.98668e+09
7.4783e+09
7.26798e+09
7.20791e+09
6.97831e+09
7.02037e+09
7.07907e+09
7.18267e+09
6.98363e+09
7.24887e+09
7.15707e+09
6.77376e+09
6.85623e+09
6.64965e+09
6.55652e+09
6.74504e+09
6.71227e+09
7.23192e+09
7.26583e+09
7.4637e+09
7.2283e+09
7.17198e+09
6.96151e+09
7.17238e+09
6.93499e+09
7.00875e+09
6.75125e+09
6.89873e+09
6.61223e+09
6.57444e+09
6.47248e+09
6.47016e+09
6.39578e+09
6.87489e+09
6.86837e+09
7.01747e+09
6.88232e+09
6.79128e+09
6.70828e+09
6.52377e+09
6.63732e+09
6.56275e+09
6.46425e+09
6.33547e+09
8.64213e+09
8.66371e+09
8.75562e+09
8.6916e+09
8.68855e+09
8.72353e+09
8.55941e+09
8.01904e+09
7.14151e+09
6.73749e+09
6.43016e+09
6.61891e+09
6.29574e+09
6.32938e+09
6.244e+09
8.64293e+09
8.66486e+09
8.66343e+09
8.73592e+09
8.68367e+09
8.67778e+09
8.79097e+09
8.4238e+09
8.73648e+09
7.83691e+09
7.39138e+09
6.72055e+09
6.58191e+09
6.42012e+09
6.4103e+09
6.23236e+09
6.18161e+09
8.18221e+09
8.59692e+09
7.82878e+09
7.77639e+09
7.57411e+09
8.51905e+09
7.74529e+09
8.32568e+09
7.78981e+09
7.68658e+09
7.79958e+09
7.87848e+09
7.78135e+09
7.83057e+09
7.83562e+09
8.04904e+09
7.70357e+09
7.79742e+09
8.02115e+09
7.85303e+09
8.01014e+09
8.18563e+09
7.99121e+09
7.89279e+09
8.14707e+09
8.0214e+09
7.88149e+09
8.17986e+09
8.14931e+09
8.04742e+09
6.8568e+09
6.90039e+09
6.8734e+09
6.90692e+09
6.88806e+09
6.95479e+09
7.00736e+09
6.76272e+09
7.0672e+09
7.48405e+09
7.44861e+09
7.74623e+09
8.15444e+09
8.35317e+09
7.82036e+09
7.78443e+09
7.89579e+09
7.73761e+09
7.83046e+09
7.96295e+09
6.66229e+09
6.95413e+09
7.30881e+09
7.79644e+09
8.11516e+09
6.57714e+09
6.84703e+09
7.43154e+09
7.84177e+09
8.04709e+09
6.77351e+09
6.6454e+09
6.86429e+09
6.58688e+09
6.55369e+09
6.45048e+09
6.54419e+09
6.41058e+09
6.37437e+09
6.55906e+09
6.38215e+09
6.37039e+09
6.37531e+09
6.37762e+09
6.36911e+09
6.3811e+09
8.44991e+09
8.55833e+09
8.58594e+09
8.51768e+09
7.84269e+09
7.75642e+09
7.38051e+09
7.41398e+09
7.59546e+09
7.26443e+09
8.32093e+09
7.575e+09
7.33748e+09
7.65305e+09
7.60737e+09
7.25616e+09
7.41685e+09
7.12543e+09
7.24053e+09
7.28888e+09
7.23234e+09
7.17508e+09
8.24968e+09
8.13661e+09
8.03879e+09
8.14427e+09
7.67008e+09
8.35043e+09
7.84413e+09
7.78913e+09
7.37905e+09
7.66389e+09
7.29598e+09
7.44949e+09
8.58315e+09
8.1054e+09
8.48488e+09
7.16268e+09
7.44646e+09
7.22391e+09
7.45865e+09
7.77295e+09
8.05734e+09
7.95219e+09
8.48168e+09
8.18404e+09
8.5079e+09
8.5487e+09
8.46789e+09
8.17969e+09
8.51002e+09
8.00967e+09
8.59476e+09
8.64094e+09
8.67919e+09
8.67263e+09
8.43704e+09
8.53849e+09
8.75626e+09
8.57681e+09
8.61022e+09
8.69383e+09
8.6875e+09
8.30236e+09
8.22368e+09
8.26403e+09
8.447e+09
8.63367e+09
7.84381e+09
7.42746e+09
7.8837e+09
7.32157e+09
7.80957e+09
7.20686e+09
7.203e+09
7.36513e+09
7.29558e+09
7.90633e+09
7.84267e+09
7.69721e+09
7.69403e+09
8.13667e+09
8.15336e+09
8.25605e+09
8.44427e+09
7.6821e+09
7.8939e+09
7.13961e+09
6.97301e+09
7.07337e+09
7.07562e+09
6.95019e+09
6.81606e+09
6.90827e+09
6.76938e+09
6.69648e+09
6.84011e+09
7.06402e+09
7.02626e+09
6.73001e+09
6.75752e+09
6.53446e+09
6.40826e+09
6.6272e+09
6.58555e+09
7.17409e+09
7.27803e+09
7.16705e+09
6.91127e+09
7.22321e+09
6.95767e+09
6.89356e+09
6.85941e+09
6.47545e+09
6.57148e+09
6.58994e+09
6.49945e+09
6.69738e+09
6.49561e+09
6.49324e+09
6.40013e+09
6.27816e+09
6.79568e+09
6.74326e+09
6.82318e+09
6.7448e+09
6.73574e+09
6.72087e+09
6.47698e+09
6.44948e+09
6.49925e+09
6.57552e+09
6.44304e+09
6.32467e+09
6.26164e+09
6.31695e+09
6.23949e+09
8.6444e+09
8.62721e+09
8.66577e+09
8.744e+09
8.68457e+09
8.68206e+09
8.77777e+09
8.362e+09
8.70235e+09
7.78731e+09
7.35412e+09
6.70371e+09
6.57039e+09
6.41447e+09
6.39905e+09
6.22979e+09
6.1797e+09
8.6299e+09
8.60698e+09
8.64176e+09
8.75634e+09
8.68462e+09
8.67679e+09
8.78565e+09
8.35134e+09
8.69814e+09
8.00511e+09
7.16658e+09
6.55864e+09
6.3619e+09
6.32608e+09
6.25795e+09
6.23747e+09
6.186e+09
6.16672e+09
8.58767e+09
8.23142e+09
8.3431e+09
7.73207e+09
8.54864e+09
7.69318e+09
8.02973e+09
7.91648e+09
8.34128e+09
7.84191e+09
7.81005e+09
7.90004e+09
8.42862e+09
8.02673e+09
7.87023e+09
7.98676e+09
7.89752e+09
8.06486e+09
7.92023e+09
7.9113e+09
7.90018e+09
8.10339e+09
8.03708e+09
7.96488e+09
8.47335e+09
8.46143e+09
7.95961e+09
8.17529e+09
8.10244e+09
7.96685e+09
8.26073e+09
8.1401e+09
6.87188e+09
6.87229e+09
7.27632e+09
6.84331e+09
6.85453e+09
6.90175e+09
6.67727e+09
6.93205e+09
6.91201e+09
6.90399e+09
7.23916e+09
7.16522e+09
7.43265e+09
7.06314e+09
7.69423e+09
7.5766e+09
7.72759e+09
8.31467e+09
8.25279e+09
8.0797e+09
8.03992e+09
7.90257e+09
7.86667e+09
8.13955e+09
6.5831e+09
6.86264e+09
7.40611e+09
7.90987e+09
8.09416e+09
6.42531e+09
6.62443e+09
6.85605e+09
7.05844e+09
7.63e+09
7.92289e+09
8.16287e+09
6.68731e+09
6.8388e+09
6.62999e+09
6.46248e+09
6.47252e+09
6.55175e+09
6.39914e+09
6.41761e+09
6.38004e+09
6.38412e+09
6.36686e+09
6.39297e+09
6.38531e+09
6.36854e+09
6.38518e+09
6.35906e+09
6.4343e+09
6.37418e+09
6.31793e+09
8.51738e+09
8.50688e+09
7.65762e+09
7.3986e+09
7.29972e+09
7.4675e+09
8.42087e+09
7.40035e+09
7.71844e+09
7.28067e+09
7.59403e+09
7.82822e+09
7.52742e+09
7.81443e+09
7.2005e+09
7.0941e+09
7.31669e+09
7.15123e+09
7.08231e+09
7.21635e+09
7.07862e+09
7.06407e+09
7.05022e+09
8.47131e+09
8.17824e+09
8.09004e+09
8.28895e+09
7.97866e+09
8.03013e+09
8.30145e+09
7.73084e+09
7.73875e+09
8.23923e+09
8.35168e+09
7.82681e+09
7.32219e+09
7.21177e+09
7.55362e+09
7.22009e+09
7.23831e+09
7.42246e+09
8.19563e+09
8.48457e+09
8.56207e+09
7.12747e+09
7.10975e+09
7.31077e+09
7.07776e+09
7.69952e+09
7.51158e+09
7.79246e+09
8.00062e+09
8.13076e+09
8.29977e+09
8.15061e+09
8.48397e+09
8.54215e+09
8.17944e+09
8.10982e+09
8.5537e+09
8.62616e+09
8.64758e+09
8.58726e+09
8.66932e+09
8.68038e+09
8.67587e+09
8.48094e+09
8.47743e+09
8.55183e+09
8.7516e+09
8.58399e+09
8.55819e+09
8.58894e+09
8.68299e+09
8.67724e+09
8.68982e+09
8.08004e+09
8.30591e+09
8.12266e+09
8.32133e+09
8.46353e+09
8.72742e+09
7.80977e+09
7.51271e+09
7.91323e+09
7.39699e+09
7.82377e+09
7.15028e+09
7.21256e+09
7.88514e+09
8.02606e+09
7.62903e+09
7.63081e+09
7.69665e+09
8.07764e+09
8.18193e+09
8.18305e+09
8.23365e+09
8.61948e+09
7.49939e+09
7.6955e+09
7.68213e+09
6.94277e+09
7.08154e+09
7.16195e+09
6.84168e+09
6.92699e+09
6.88969e+09
7.27283e+09
6.66681e+09
6.99956e+09
6.93103e+09
6.85415e+09
6.72162e+09
6.63867e+09
6.57092e+09
6.5538e+09
6.54209e+09
6.94208e+09
7.07399e+09
6.97145e+09
7.02751e+09
6.70088e+09
6.46667e+09
6.36668e+09
6.39354e+09
6.5383e+09
6.51444e+09
7.00728e+09
6.92003e+09
7.07051e+09
6.92489e+09
6.78833e+09
6.85537e+09
7.06423e+09
6.93317e+09
6.75193e+09
6.40689e+09
6.43744e+09
6.47785e+09
6.56653e+09
6.41201e+09
6.4657e+09
6.69077e+09
6.67149e+09
6.53462e+09
6.41439e+09
6.30465e+09
6.2744e+09
6.38752e+09
6.70261e+09
6.79282e+09
6.56632e+09
6.44836e+09
6.36374e+09
6.37173e+09
6.59574e+09
6.56551e+09
6.34122e+09
6.29101e+09
6.23059e+09
6.24307e+09
6.22474e+09
6.17709e+09
8.6293e+09
8.60475e+09
8.64823e+09
8.76571e+09
8.69122e+09
8.68032e+09
8.765e+09
8.30555e+09
8.66672e+09
7.95974e+09
7.13824e+09
6.54624e+09
6.35628e+09
6.32179e+09
6.24361e+09
6.23441e+09
6.18375e+09
6.16826e+09
8.61711e+09
8.62367e+09
8.56194e+09
8.64595e+09
8.72893e+09
8.67823e+09
8.65938e+09
8.80292e+09
8.56326e+09
8.78947e+09
7.9185e+09
6.7564e+09
7.47184e+09
6.35183e+09
6.24518e+09
6.46299e+09
6.17005e+09
6.16185e+09
6.22175e+09
8.52839e+09
8.58896e+09
7.74427e+09
8.35885e+09
8.0298e+09
7.89244e+09
8.09275e+09
8.48253e+09
8.35273e+09
7.94694e+09
7.88669e+09
8.04306e+09
8.46315e+09
8.07818e+09
7.95256e+09
8.05281e+09
8.07346e+09
7.98267e+09
8.33753e+09
8.17047e+09
8.02983e+09
8.35095e+09
8.46156e+09
8.03976e+09
8.24106e+09
8.08335e+09
8.23411e+09
8.2632e+09
8.18404e+09
6.96493e+09
6.85082e+09
7.30466e+09
6.69915e+09
6.81745e+09
6.867e+09
6.90441e+09
6.62109e+09
6.58578e+09
6.87284e+09
6.85542e+09
6.87546e+09
7.17464e+09
7.30346e+09
7.39183e+09
7.66477e+09
7.29332e+09
7.26685e+09
7.36066e+09
7.93737e+09
7.90054e+09
7.95385e+09
8.38227e+09
7.79196e+09
8.19242e+09
8.13459e+09
7.99859e+09
8.08671e+09
8.04422e+09
8.13404e+09
6.43372e+09
6.63784e+09
6.88732e+09
7.10639e+09
7.75049e+09
7.98821e+09
8.21274e+09
6.39376e+09
6.47745e+09
6.60053e+09
6.92536e+09
7.50163e+09
7.9137e+09
8.10045e+09
6.66429e+09
6.80419e+09
6.61031e+09
6.48317e+09
6.41684e+09
6.50288e+09
6.58492e+09
6.39136e+09
6.39621e+09
6.37806e+09
6.38273e+09
6.39819e+09
6.36918e+09
6.39553e+09
6.37847e+09
6.45885e+09
6.37723e+09
6.32231e+09
6.52732e+09
6.47982e+09
6.50273e+09
6.48602e+09
6.32832e+09
8.44663e+09
8.29072e+09
8.50031e+09
7.08598e+09
7.40682e+09
7.19268e+09
7.1169e+09
7.39617e+09
7.42885e+09
7.65382e+09
7.20663e+09
7.17174e+09
7.66659e+09
7.79184e+09
7.65867e+09
7.81337e+09
7.09068e+09
7.26477e+09
7.06551e+09
7.02729e+09
7.32054e+09
7.13817e+09
7.07113e+09
7.04161e+09
8.43141e+09
8.2803e+09
8.14139e+09
8.27922e+09
8.13361e+09
8.27246e+09
7.63731e+09
7.49591e+09
7.47674e+09
7.6763e+09
8.31013e+09
8.31061e+09
8.30733e+09
8.08542e+09
7.73138e+09
7.32271e+09
7.16315e+09
7.57059e+09
7.12115e+09
7.15628e+09
7.17464e+09
8.30152e+09
8.45323e+09
7.03367e+09
7.20871e+09
7.38775e+09
7.12497e+09
7.04962e+09
7.67037e+09
7.56868e+09
7.77998e+09
8.04502e+09
8.08587e+09
8.47241e+09
8.35484e+09
8.08217e+09
8.30388e+09
8.17188e+09
8.01494e+09
8.59668e+09
8.59984e+09
8.64897e+09
8.62684e+09
8.51557e+09
8.58729e+09
8.65479e+09
8.67402e+09
8.68935e+09
8.66295e+09
8.24222e+09
8.50712e+09
8.58235e+09
8.53226e+09
8.75753e+09
8.56292e+09
8.53241e+09
8.60446e+09
8.63544e+09
8.70137e+09
8.69607e+09
8.65587e+09
8.68663e+09
8.24147e+09
8.03155e+09
8.496e+09
8.70444e+09
7.69697e+09
7.43597e+09
7.50376e+09
7.21499e+09
7.72751e+09
6.85913e+09
7.7472e+09
7.98473e+09
8.08468e+09
7.81586e+09
7.56323e+09
7.53032e+09
7.83322e+09
7.52888e+09
8.25795e+09
8.36799e+09
7.8556e+09
7.85869e+09
8.20473e+09
8.58999e+09
7.23451e+09
7.4483e+09
7.47914e+09
7.86221e+09
6.90349e+09
6.9159e+09
7.03498e+09
7.06273e+09
7.06157e+09
6.58551e+09
6.62575e+09
6.53422e+09
6.84771e+09
7.0937e+09
7.07818e+09
6.49002e+09
6.52032e+09
7.00978e+09
6.94531e+09
6.79082e+09
6.88685e+09
6.60263e+09
6.61161e+09
6.50112e+09
6.45166e+09
6.47309e+09
6.33897e+09
6.88447e+09
6.8254e+09
7.08501e+09
7.07505e+09
7.0334e+09
6.94368e+09
6.51906e+09
6.40021e+09
6.44148e+09
6.30629e+09
6.31988e+09
6.33726e+09
6.30679e+09
6.47008e+09
6.4218e+09
6.84842e+09
6.98124e+09
6.75242e+09
6.7798e+09
6.81344e+09
6.71046e+09
6.45829e+09
6.35315e+09
6.38549e+09
6.38508e+09
6.45373e+09
6.44621e+09
6.42945e+09
6.46526e+09
6.59557e+09
6.70389e+09
6.6675e+09
6.37188e+09
6.37355e+09
6.35253e+09
6.14471e+09
6.38499e+09
6.21325e+09
6.836e+09
6.52724e+09
6.4463e+09
6.38355e+09
6.31462e+09
6.31647e+09
6.57868e+09
6.48798e+09
6.47543e+09
6.31357e+09
6.19401e+09
6.29603e+09
6.10722e+09
6.12965e+09
6.28053e+09
6.15363e+09
6.11469e+09
6.22831e+09
6.18215e+09
6.10706e+09
6.16487e+09
8.61394e+09
8.63096e+09
8.51441e+09
8.64763e+09
8.74403e+09
8.6805e+09
8.66185e+09
8.80092e+09
8.52406e+09
8.77081e+09
7.87879e+09
6.73679e+09
7.43564e+09
6.34478e+09
6.2411e+09
6.39909e+09
6.16761e+09
6.15996e+09
6.21863e+09
8.59034e+09
8.5848e+09
8.53983e+09
8.63174e+09
8.76356e+09
8.67158e+09
8.65935e+09
8.79912e+09
8.49669e+09
8.76403e+09
8.2463e+09
6.61064e+09
7.42237e+09
6.2563e+09
6.2892e+09
6.18682e+09
6.44583e+09
6.18295e+09
6.20616e+09
6.38312e+09
8.52897e+09
8.34092e+09
7.96206e+09
8.05981e+09
8.48285e+09
8.18376e+09
8.31143e+09
8.4176e+09
7.95918e+09
8.01631e+09
8.16003e+09
8.45167e+09
8.12405e+09
8.01183e+09
8.16525e+09
8.09412e+09
8.27165e+09
8.35474e+09
8.38931e+09
8.22723e+09
8.05853e+09
8.20069e+09
8.27194e+09
8.1376e+09
8.23763e+09
8.31665e+09
7.02476e+09
6.86437e+09
7.35349e+09
6.67895e+09
6.88077e+09
6.96597e+09
6.56144e+09
6.44731e+09
6.6403e+09
6.80595e+09
6.88239e+09
6.73868e+09
7.11336e+09
7.16848e+09
7.12251e+09
7.84942e+09
7.45633e+09
7.4773e+09
7.2321e+09
8.1951e+09
8.06732e+09
8.04267e+09
8.05596e+09
8.04688e+09
8.41287e+09
7.82375e+09
8.19975e+09
8.30424e+09
8.14614e+09
8.28004e+09
8.09444e+09
8.23922e+09
8.10422e+09
8.26976e+09
6.39951e+09
6.48479e+09
6.6109e+09
6.94085e+09
7.65423e+09
8.00975e+09
8.14994e+09
6.3087e+09
6.46545e+09
6.54624e+09
7.18912e+09
6.75031e+09
7.64744e+09
7.81186e+09
8.25375e+09
6.65445e+09
6.41578e+09
6.43833e+09
6.40365e+09
6.3699e+09
6.38589e+09
6.38661e+09
6.41629e+09
6.40776e+09
6.48925e+09
6.37802e+09
6.43265e+09
6.33411e+09
6.55175e+09
6.49967e+09
6.54442e+09
6.48132e+09
6.33609e+09
6.60507e+09
6.57408e+09
6.69718e+09
6.49582e+09
6.39762e+09
8.37541e+09
7.14711e+09
7.11376e+09
7.1549e+09
7.39844e+09
7.3773e+09
7.3209e+09
7.74848e+09
6.90333e+09
7.23855e+09
6.88249e+09
7.63569e+09
7.51669e+09
7.68938e+09
7.92461e+09
7.50306e+09
7.72108e+09
7.9262e+09
7.24122e+09
6.74708e+09
7.07124e+09
7.28089e+09
7.02059e+09
7.029e+09
7.27371e+09
7.00593e+09
6.9606e+09
6.99124e+09
6.89465e+09
6.92878e+09
8.12872e+09
8.36701e+09
8.34738e+09
8.19112e+09
8.33955e+09
8.51359e+09
8.25004e+09
8.03961e+09
8.26286e+09
7.90354e+09
7.51891e+09
7.51904e+09
7.25066e+09
7.48366e+09
7.93572e+09
8.34016e+09
8.3481e+09
8.13544e+09
8.21908e+09
7.7578e+09
6.98279e+09
7.62784e+09
6.99745e+09
7.06309e+09
7.03297e+09
8.40162e+09
8.46395e+09
7.14993e+09
7.24889e+09
7.68761e+09
7.54374e+09
7.54978e+09
7.93718e+09
8.43119e+09
8.17475e+09
8.32867e+09
7.92046e+09
8.56072e+09
8.61075e+09
8.53744e+09
8.63322e+09
8.61934e+09
8.61054e+09
8.64271e+09
8.41215e+09
8.41442e+09
8.52307e+09
8.48456e+09
8.64921e+09
8.67479e+09
8.69022e+09
8.67629e+09
8.65641e+09
8.1985e+09
8.42047e+09
8.49047e+09
8.48502e+09
8.65164e+09
8.75869e+09
8.6341e+09
8.56818e+09
8.46493e+09
8.61151e+09
8.5479e+09
8.6397e+09
8.68496e+09
8.69498e+09
8.6906e+09
8.66773e+09
8.33096e+09
8.04543e+09
8.39241e+09
8.46469e+09
8.52643e+09
8.77548e+09
7.65951e+09
7.25842e+09
7.42551e+09
7.11904e+09
7.77327e+09
6.97322e+09
7.67274e+09
8.01353e+09
8.06657e+09
7.74711e+09
7.39959e+09
7.58259e+09
7.78278e+09
7.65677e+09
8.29797e+09
8.11274e+09
8.24786e+09
7.80818e+09
7.74094e+09
7.87947e+09
8.43289e+09
8.43422e+09
8.71997e+09
7.25429e+09
7.24932e+09
7.54917e+09
7.25237e+09
7.46697e+09
7.64868e+09
7.79422e+09
6.85129e+09
6.93363e+09
6.93714e+09
7.03774e+09
6.91096e+09
6.95588e+09
7.10356e+09
7.12518e+09
6.63131e+09
6.51005e+09
6.66822e+09
6.55326e+09
6.9718e+09
6.96797e+09
6.69795e+09
7.35431e+09
6.41927e+09
6.32552e+09
7.00827e+09
6.60119e+09
6.83291e+09
6.56042e+09
6.49868e+09
6.3726e+09
6.32793e+09
6.31424e+09
6.26721e+09
6.22827e+09
6.54232e+09
6.51152e+09
7.04646e+09
6.78331e+09
7.10599e+09
7.01319e+09
6.94503e+09
6.64921e+09
6.38616e+09
6.34413e+09
6.3488e+09
6.23772e+09
6.25724e+09
6.37664e+09
6.97632e+09
6.65542e+09
6.55737e+09
6.39074e+09
6.26768e+09
6.4017e+09
6.41313e+09
6.42154e+09
6.37601e+09
6.52922e+09
6.63878e+09
6.56706e+09
6.77777e+09
6.70069e+09
6.3232e+09
6.20294e+09
6.39383e+09
6.37857e+09
6.26932e+09
6.14084e+09
6.39009e+09
6.26259e+09
6.31061e+09
6.52121e+09
6.90024e+09
6.44142e+09
6.42018e+09
6.35387e+09
6.34389e+09
6.23111e+09
6.27808e+09
6.48129e+09
6.5186e+09
6.43531e+09
6.46999e+09
6.20631e+09
6.15536e+09
6.21822e+09
6.04973e+09
6.05325e+09
6.19395e+09
6.04594e+09
6.07544e+09
6.10655e+09
6.16303e+09
6.09328e+09
6.15456e+09
6.06311e+09
6.0993e+09
6.20611e+09
8.57633e+09
8.5881e+09
8.50624e+09
8.63492e+09
8.77658e+09
8.67574e+09
8.66005e+09
8.7925e+09
8.46278e+09
8.74909e+09
8.21071e+09
6.5952e+09
7.39134e+09
6.25144e+09
6.282e+09
6.18361e+09
6.43615e+09
6.18067e+09
6.20382e+09
6.38366e+09
8.56436e+09
8.58834e+09
8.56106e+09
8.64689e+09
8.6048e+09
8.72388e+09
8.66199e+09
8.67619e+09
8.78671e+09
8.69404e+09
8.7997e+09
8.19798e+09
6.37887e+09
6.74905e+09
7.92728e+09
7.10929e+09
6.14131e+09
6.15492e+09
6.17641e+09
6.61559e+09
6.2553e+09
6.28005e+09
6.51943e+09
8.34743e+09
8.35573e+09
8.11013e+09
8.4911e+09
8.24235e+09
8.16562e+09
8.3561e+09
8.29746e+09
8.46098e+09
8.10613e+09
8.13448e+09
8.27118e+09
8.14208e+09
8.11885e+09
8.25646e+09
8.31494e+09
8.38299e+09
8.37489e+09
8.16595e+09
8.28299e+09
8.28985e+09
8.12267e+09
8.21383e+09
8.30838e+09
8.28738e+09
8.28169e+09
8.30437e+09
6.96136e+09
6.60976e+09
6.81357e+09
6.47183e+09
6.41152e+09
6.66261e+09
6.4922e+09
6.72394e+09
6.86232e+09
6.60777e+09
6.67878e+09
6.83328e+09
7.57355e+09
7.04837e+09
6.93578e+09
7.97182e+09
7.79198e+09
7.51738e+09
7.25187e+09
7.6288e+09
7.22625e+09
8.10183e+09
8.09094e+09
8.1085e+09
7.71543e+09
7.89911e+09
8.06432e+09
7.96233e+09
8.10865e+09
8.1748e+09
8.2984e+09
8.32373e+09
8.21803e+09
6.3196e+09
6.47373e+09
6.54928e+09
7.34739e+09
6.77214e+09
7.79287e+09
7.91744e+09
8.27116e+09
6.31244e+09
6.31024e+09
6.33069e+09
6.98302e+09
6.69339e+09
7.39343e+09
7.98537e+09
8.14668e+09
6.39606e+09
6.37127e+09
6.39266e+09
6.39218e+09
6.48868e+09
6.54588e+09
6.52602e+09
6.51245e+09
6.58785e+09
6.45775e+09
6.35625e+09
6.34577e+09
6.5948e+09
6.6e+09
6.71997e+09
6.48934e+09
6.39727e+09
6.72154e+09
6.59093e+09
6.67198e+09
6.80513e+09
6.59819e+09
6.42798e+09
7.00266e+09
7.29058e+09
7.30044e+09
7.30472e+09
7.48015e+09
7.68683e+09
6.82163e+09
6.76335e+09
7.08152e+09
6.70325e+09
7.47411e+09
7.68765e+09
7.85133e+09
7.46534e+09
7.99047e+09
7.54052e+09
7.61054e+09
7.91212e+09
7.96951e+09
7.19669e+09
6.78221e+09
6.47846e+09
6.69665e+09
7.37677e+09
6.82133e+09
6.80816e+09
6.674e+09
6.70074e+09
8.22715e+09
8.34542e+09
8.07139e+09
8.39486e+09
8.31509e+09
8.41978e+09
8.12978e+09
8.13907e+09
7.24958e+09
7.17267e+09
7.13588e+09
7.51464e+09
7.27869e+09
7.72568e+09
8.10763e+09
8.35307e+09
8.23243e+09
7.90705e+09
8.3595e+09
7.73157e+09
7.62585e+09
7.43833e+09
6.95743e+09
7.06975e+09
6.97434e+09
6.98654e+09
8.21882e+09
7.35923e+09
7.6312e+09
7.502e+09
8.3571e+09
8.03788e+09
8.48947e+09
8.13255e+09
7.95045e+09
8.6207e+09
8.59912e+09
8.41751e+09
8.64597e+09
8.59266e+09
8.55761e+09
8.65095e+09
8.59262e+09
8.21306e+09
8.2114e+09
8.52199e+09
8.4598e+09
8.46492e+09
8.66216e+09
8.68627e+09
8.69445e+09
8.66918e+09
8.68339e+09
8.67171e+09
8.64763e+09
8.31907e+09
8.04393e+09
8.63964e+09
8.77692e+09
8.63115e+09
8.51325e+09
8.60114e+09
8.67894e+09
8.60793e+09
8.68547e+09
8.69503e+09
8.66258e+09
8.24334e+09
8.2508e+09
7.85727e+09
8.43268e+09
8.42597e+09
8.60612e+09
8.76504e+09
7.66392e+09
7.35401e+09
7.39193e+09
7.22757e+09
7.72788e+09
7.58479e+09
7.93112e+09
7.69454e+09
7.54419e+09
7.6185e+09
7.52324e+09
7.73537e+09
7.58216e+09
8.23897e+09
7.99132e+09
8.25688e+09
8.01348e+09
7.68288e+09
7.87891e+09
7.83703e+09
7.97373e+09
8.3894e+09
8.44478e+09
8.11889e+09
8.57321e+09
8.70367e+09
7.27023e+09
7.25365e+09
7.57709e+09
7.43634e+09
7.11387e+09
7.16795e+09
7.29808e+09
7.58336e+09
8.13644e+09
6.87086e+09
6.89585e+09
7.0198e+09
6.95673e+09
6.78994e+09
7.07243e+09
6.92846e+09
6.55554e+09
6.55339e+09
6.60303e+09
6.49515e+09
6.80625e+09
7.04737e+09
6.50593e+09
6.55558e+09
7.12779e+09
7.32155e+09
6.44235e+09
6.30771e+09
6.20837e+09
6.23712e+09
6.26007e+09
7.18812e+09
6.4316e+09
6.539e+09
6.37874e+09
6.30773e+09
6.28306e+09
6.20034e+09
6.18596e+09
6.16434e+09
6.17763e+09
6.47651e+09
6.42855e+09
6.40245e+09
6.63973e+09
7.12795e+09
6.67422e+09
6.68176e+09
6.2503e+09
6.22923e+09
6.18971e+09
6.17638e+09
6.91673e+09
6.82566e+09
6.56334e+09
6.35252e+09
6.28794e+09
6.26138e+09
6.10621e+09
6.30521e+09
6.48181e+09
6.43026e+09
6.33524e+09
6.4276e+09
6.25908e+09
6.48636e+09
6.63043e+09
6.66659e+09
6.76005e+09
6.2052e+09
6.4004e+09
6.39321e+09
6.33385e+09
6.3214e+09
6.04906e+09
6.09665e+09
6.40353e+09
6.41357e+09
6.17929e+09
6.43184e+09
6.41833e+09
6.65492e+09
6.46634e+09
6.30957e+09
6.25177e+09
6.14797e+09
6.24689e+09
6.19364e+09
6.48867e+09
6.45042e+09
6.54828e+09
6.2842e+09
6.48342e+09
6.05728e+09
6.02313e+09
6.03632e+09
6.01205e+09
6.03629e+09
6.15262e+09
6.00466e+09
6.10282e+09
6.01665e+09
6.00955e+09
6.11379e+09
6.05633e+09
6.1747e+09
6.10692e+09
6.19368e+09
6.0546e+09
6.09358e+09
6.10851e+09
6.16441e+09
6.36463e+09
8.55774e+09
8.59538e+09
8.53547e+09
8.6455e+09
8.61527e+09
8.74076e+09
8.66306e+09
8.68307e+09
8.79077e+09
8.66697e+09
8.79873e+09
8.16626e+09
6.36912e+09
6.72881e+09
7.89513e+09
7.07879e+09
6.13653e+09
6.14913e+09
6.17218e+09
6.62225e+09
6.25126e+09
6.27686e+09
6.51444e+09
8.55739e+09
8.58082e+09
8.50149e+09
8.55627e+09
8.64784e+09
8.61033e+09
8.75926e+09
8.65896e+09
8.67708e+09
8.7694e+09
8.65134e+09
8.7709e+09
8.47328e+09
6.28704e+09
6.5712e+09
7.9436e+09
7.25995e+09
6.19582e+09
6.16655e+09
6.15572e+09
6.29199e+09
6.75137e+09
6.31571e+09
6.42698e+09
6.79206e+09
8.38288e+09
8.31536e+09
8.2884e+09
8.15771e+09
8.38296e+09
8.47852e+09
8.28007e+09
8.44845e+09
8.37272e+09
8.42926e+09
8.23064e+09
8.15744e+09
8.24877e+09
8.35533e+09
8.12717e+09
8.23033e+09
8.32146e+09
8.4129e+09
8.4083e+09
8.33181e+09
8.18887e+09
8.41461e+09
8.3071e+09
8.32527e+09
8.26453e+09
8.25891e+09
8.31388e+09
8.3494e+09
8.28648e+09
8.2835e+09
7.15944e+09
6.52267e+09
6.67979e+09
6.44906e+09
6.40322e+09
6.33637e+09
6.6052e+09
6.48207e+09
6.4773e+09
6.7959e+09
6.66955e+09
6.55673e+09
6.54574e+09
6.74244e+09
6.60039e+09
6.82773e+09
7.3901e+09
7.05155e+09
6.94703e+09
7.46104e+09
6.76909e+09
7.58501e+09