/*--------------------------------*- C++ -*----------------------------------*\
  =========                 |
  \\      /  F ield         | OpenFOAM: The Open Source CFD Toolbox
   \\    /   O peration     | Website:  https://openfoam.org
    \\  /    A nd           | Version:  12
     \\/     M anipulation  |
\*---------------------------------------------------------------------------*/
FoamFile
{
    format      ascii;
    class       volScalarField;
    location    "32";
    object      TrSource;
}
// * * * * * * * * * * * * * * * * * * * * * * * * * * * * * * * * * * * * * //

dimensions      [0 0 -1 0 0 0 0];

internalField   uniform 1;

boundaryField
{
    face1
    {
        type            fixedValue;
        value           uniform 0;
    }
    face2
    {
        type            fixedValue;
        value           uniform 0;
    }
    face3
    {
        type            fixedValue;
        value           uniform 0;
    }
    face4
    {
        type            fixedValue;
        value           uniform 0;
    }
    face5
    {
        type            fixedValue;
        value           uniform 0;
    }
    face6
    {
        type            fixedValue;
        value           uniform 0;
    }
    face7
    {
        type            fixedValue;
        value           uniform 0;
    }
    face8
    {
        type            fixedValue;
        value           uniform 0;
    }
    face9
    {
        type            fixedValue;
        value           uniform 0;
    }
    face10
    {
        type            fixedValue;
        value           uniform 0;
    }
    face11
    {
        type            fixedValue;
        value           uniform 0;
    }
    face12
    {
        type            fixedValue;
        value           uniform 0;
    }
    face13
    {
        type            fixedValue;
        value           uniform 0;
    }
    face14
    {
        type            fixedValue;
        value           uniform 0;
    }
    face15
    {
        type            fixedValue;
        value           uniform 0;
    }
    face16
    {
        type            fixedValue;
        value           uniform 0;
    }
    face17
    {
        type            fixedValue;
        value           uniform 0;
    }
    face18
    {
        type            fixedValue;
        value           uniform 0;
    }
    face19
    {
        type            fixedValue;
        value           uniform 0;
    }
    face20
    {
        type            fixedValue;
        value           uniform 0;
    }
    face21
    {
        type            fixedValue;
        value           uniform 0;
    }
    face22
    {
        type            fixedValue;
        value           uniform 0;
    }
    face23
    {
        type            fixedValue;
        value           uniform 0;
    }
    face24
    {
        type            fixedValue;
        value           uniform 0;
    }
    face25
    {
        type            fixedValue;
        value           uniform 0;
    }
    face26
    {
        type            fixedValue;
        value           uniform 0;
    }
    face27
    {
        type            fixedValue;
        value           uniform 0;
    }
    face28
    {
        type            fixedValue;
        value           uniform 0;
    }
    face29
    {
        type            fixedValue;
        value           uniform 0;
    }
    face30
    {
        type            fixedValue;
        value           uniform 0;
    }
    face31
    {
        type            fixedValue;
        value           uniform 0;
    }
    face32
    {
        type            fixedValue;
        value           uniform 0;
    }
    face33
    {
        type            fixedValue;
        value           uniform 0;
    }
    face34
    {
        type            fixedValue;
        value           uniform 0;
    }
}


// ************************************************************************* //
