/*--------------------------------*- C++ -*----------------------------------*\
| =========                 |                                                 |
| \\      /  F ield         | OpenFOAM: The Open Source CFD Toolbox           |
|  \\    /   O peration     | Version:  2.3.1                                 |
|   \\  /    A nd           | Web:      www.OpenFOAM.org                      |
|    \\/     M anipulation  |                                                 |
\*---------------------------------------------------------------------------*/
FoamFile
{
    version     2.0;
    format      ascii;
    class       volScalarField;
    location    "1000";
    object      k;
}
// * * * * * * * * * * * * * * * * * * * * * * * * * * * * * * * * * * * * * //

dimensions      [0 2 -2 0 0 0 0];

internalField   nonuniform List<scalar> 
143879
(
0.0131560718859
0.0613407186542
0.015446369288
0.00687387081893
0.0195977983226
0.0254269897684
0.0191860334051
0.0166001737738
0.00620859964104
0.00946246734313
0.00381027611533
0.00530022740275
0.01015775747
0.00904659401237
0.0402097784305
0.0452558276889
0.0101762025315
0.0463738147668
0.0222761366246
0.00618683975895
0.00890717219248
0.00272616853908
0.00364885327939
0.00660606631914
0.00374243368473
0.00186374800602
0.00470583071847
0.00571397661676
0.0153401376483
0.015495716738
0.00370950511927
0.0127944079461
0.0295135496712
0.0443030456784
0.0507583858348
0.018997973658
0.0503730440519
0.0123795758066
0.00823981796935
0.0150489125867
0.00283203475144
0.00351618460126
0.00437728952868
0.00431168209101
0.00421342746402
0.00280575789636
0.00319615972503
0.0132842461854
0.00406398770188
0.00322741986508
0.00512757329235
0.00251819243257
0.00264114819274
0.00243612852003
0.00750800837474
0.0085525483739
0.00287630916517
0.0029661007575
0.00686874517637
0.0141461778079
0.0147010946903
0.0155698779731
0.00927691996753
0.0131718366576
0.0479065395861
0.0414314199959
0.0444896322359
0.0475934908208
0.021200455405
0.0488806260888
0.019483103033
0.0065818800277
0.00318560433775
0.00488070703776
0.00750454577525
0.0283211504712
0.00319780079333
0.00255487943936
0.00298192920709
0.00229688864002
0.00173540458306
0.00547652327846
0.00536935445029
0.0034331146381
0.00538199547462
0.00226994492612
0.0151743923439
0.00585596795551
0.00406694530668
0.00700305137706
0.00986085636578
0.00549941175251
0.00247357303245
0.00252029022803
0.00264083031782
0.00222232102737
0.00264860821045
0.00677713275722
0.00294771392119
0.00822466047178
0.00247421522038
0.00840553114953
0.00257247192176
0.00218493414643
0.00464547573869
0.00644138499579
0.00235372497559
0.00728306360044
0.0168801867313
0.0136936063843
0.0145902519856
0.0148449848054
0.00550573595235
0.0150694723434
0.0596086714012
0.0417638622079
0.0380962666806
0.0404758731038
0.0504959149314
0.044314375984
0.0361312117881
0.0633906561261
0.0342476977052
0.00773687509581
0.0352665844499
0.00363617187736
0.00406574614323
0.00341844224768
0.00744045619602
0.00811740953217
0.0136298830611
0.00323608769035
0.00390596890982
0.00179325513459
0.00193033007203
0.00368223517924
0.00141192291146
0.00625703031669
0.00573436184278
0.0055776248931
0.00580574406381
0.00596605039466
0.00573398488313
0.00551217153007
0.00293932016635
0.0059452151032
0.00303297064765
0.0146272256029
0.00713879924516
0.00664104361427
0.00682739307136
0.00653467519429
0.0109954995775
0.00193274879762
0.00352551213604
0.00235002008958
0.00336829161724
0.00205791687067
0.00236312974707
0.00325036039589
0.00666873439297
0.00628788993781
0.00304580147556
0.0034200287601
0.00334448381418
0.00869598979356
0.00918127590453
0.00258636408996
0.00320539840826
0.00840248714372
0.00360760863014
0.00201096642545
0.00488147288126
0.00538895590968
0.00461197719762
0.00241090322517
0.00229778862629
0.00820319349412
0.0205596632924
0.013824716665
0.0133069201424
0.0144583997187
0.0152736793212
0.0142046579061
0.0161451410718
0.0144456976504
0.0785738928756
0.0672755758916
0.0414523105086
0.0324477453813
0.0365643467106
0.0405078993273
0.0465436499268
0.0427921469412
0.0263487413551
0.0483742345509
0.0213463026555
0.0113033106054
0.0423506056505
0.00356292496311
0.0100610508459
0.0392058347746
0.00386206382781
0.00589758027945
0.00327544502777
0.00670781385912
0.00653531711653
0.00972843746885
0.0265866455985
0.00544772383466
0.00268700251019
0.00527528525059
0.00296640681388
0.00258883249153
0.00204789349568
0.00410752035714
0.00483558259626
0.00511228482679
0.00836937961616
0.00514943990173
0.00599781991892
0.00710400673389
0.00697940298603
0.00520204970047
0.00737549050083
0.00842452623012
0.00639544061098
0.0037781413189
0.00743115781671
0.00351981266043
0.0113982800618
0.00917094174136
0.00614879879585
0.00633981210065
0.00569671744506
0.00794473183604
0.00600490500785
0.00672259680639
0.00867451382484
0.00496571426094
0.0028911291696
0.00256039307099
0.00364253407076
0.00185860379645
0.00186876273424
0.00253025392682
0.00208667685491
0.0072055747885
0.00944651609012
0.00781657738908
0.00649522629895
0.00298175188866
0.0026386532549
0.00336353317533
0.0033754791847
0.00320346770992
0.0112871749867
0.00990104172874
0.00271265260462
0.00213918078197
0.00259703008287
0.00832293181687
0.00839349303778
0.00603123436054
0.00216799747756
0.00185887614199
0.00214345453106
0.0071617465549
0.00256599624368
0.00915892906328
0.0136757537672
0.0098089379159
0.0020499534668
0.00221623349203
0.00276598195146
0.00688393981087
0.0242198425433
0.019901556118
0.0133398897401
0.0125616809979
0.0136494507046
0.013825483667
0.0150295283548
0.0146358406204
0.00640391557774
0.0151240064456
0.0658718547982
0.045612397221
0.0516398009911
0.0337347585195
0.0274241750743
0.0311208447697
0.0374233706427
0.0479136961697
0.0392483525873
0.0316270677606
0.0557366901237
0.010184247245
0.0751657241521
0.0042946156213
0.0110579701232
0.0599119863381
0.00494815641057
0.0107161698434
0.034496205365
0.00591476990042
0.00362927874271
0.00805052698915
0.00368736222846
0.0034971988571
0.00755124961839
0.00901980048745
0.0107397579801
0.0141478241848
0.00621034666481
0.0058929533066
0.00374595283494
0.00355620291418
0.00410248664006
0.00757634691074
0.00575637795973
0.00401670821418
0.00450059852197
0.00585569100604
0.00591855113465
0.00964868338735
0.0088486843772
0.014109902639
0.00630218417889
0.00929363075331
0.00678736056209
0.00720855048195
0.00697025340679
0.0093807543454
0.00837194849761
0.00856884474854
0.00445420969144
0.00787379082411
0.004371259941
0.00983157779735
0.00861199609858
0.00666335334972
0.00926542440213
0.00822514408883
0.00673017334081
0.00555801581853
0.0062887209614
0.00372256341284
0.0116899687456
0.00448682270197
0.0024475687028
0.0019130542349
0.00447305881731
0.00157652172515
0.00180762298698
0.00138838531577
0.00190897061033
0.00152742668845
0.00194101203632
0.009686676666
0.00449446892699
0.0144434549744
0.0101288781796
0.0109611681517
0.00524557626891
0.00981907637117
0.00425319203594
0.00851447149753
0.00312472399479
0.00183522983009
0.00162491333185
0.00299326051373
0.00294538771816
0.00368041902018
0.0115989250957
0.00963637075594
0.00414659741752
0.00829348255412
0.0020559153029
0.00205051739064
0.00194329038895
0.00256806105503
0.00246634319491
0.00855300013247
0.00842438568733
0.00364738149234
0.00179448745097
0.00181300090875
0.00188036423531
0.00183888019376
0.00192900437241
0.00499132125153
0.0052815369516
0.00714023553902
0.0055034288833
0.00190915512412
0.00201918052019
0.00246883661832
0.0020576045048
0.00205222337469
0.00709172154226
0.0177005217497
0.0148826118329
0.0151297589585
0.0123457738951
0.0127553971739
0.0127150928349
0.0135493450128
0.0147695034854
0.014009406135
0.0154354001932
0.0135430402816
0.105662819195
0.0361427896329
0.0420703539872
0.040567947897
0.0193874980819
0.0293342873054
0.0242462818691
0.0276820786613
0.0324605620501
0.0346091700087
0.0430929417072
0.0405131196729
0.0161450196643
0.0466306113326
0.00608275377131
0.0189086144835
0.059290628808
0.0718925277477
0.00566279235616
0.0119556397667
0.0426432253164
0.00531012732278
0.00862519526719
0.0313624226157
0.00581003587526
0.00463305887042
0.00425170402603
0.0114544592976
0.00802764753278
0.00543500155445
0.00471119516745
0.00556169933291
0.0104187363527
0.00925865481205
0.0182694947011
0.00668946053197
0.00593768989118
0.00558036224438
0.00450709721507
0.00698179794272
0.00837677237227
0.0073115882688
0.00910885283287
0.00787550071164
0.00520254026901
0.00678719343117
0.00693305066763
0.00913453103127
0.0126110642465
0.0114037928902
0.0119541381429
0.0154692327555
0.00457122639993
0.00990799069856
0.00773590195452
0.0123226214644
0.00613418973393
0.00993511636437
0.010104350039
0.00595996473741
0.00972685845578
0.00534261044573
0.00545570226902
0.00919539725433
0.010641432136
0.0127966985804
0.00769579803806
0.00586267334009
0.00780697662783
0.00561586390785
0.00757931541166
0.00386701695236
0.00306214003106
0.00467013192667
0.00214163150869
0.001749737704
0.00134408384765
0.0045278401304
0.00104935618288
0.00138110942812
0.00241120416209
0.00153960739067
0.00146018254867
0.00129442058791
0.00132643330513
0.00110316509066
0.00166220014525
0.00222445766272
0.00544524625122
0.00961260126572
0.0040907783962
0.0151648455685
0.0122572646051
0.0115860583659
0.0141890587067
0.00477944065194
0.00649224077795
0.0126597867131
0.00475770192345
0.00274366102379
0.00186796777172
0.00135986611037
0.00159974129628
0.00131878749951
0.00187763827048
0.00211485709728
0.00284398303111
0.00167536307218
0.00476460773411
0.0111031263205
0.00325147312835
0.0088749387733
0.00305884215878
0.00219862453375
0.00233739675808
0.00752147595646
0.00191086179158
0.0020288763326
0.00136591651318
0.00185311337362
0.00213087469946
0.00162882733645
0.0026578928959
0.0072415658249
0.00246679361148
0.00797521855329
0.00147248820031
0.00148854097893
0.00141483550791
0.00182376890881
0.00409118634848
0.0045224340255
0.00600119776005
0.00185653657492
0.00862996382089
0.0137075815048
0.00949387921658
0.00159364012044
0.00175640013043
0.00164207453632
0.0018844559543
0.00178814155223
0.00214787038354
0.00189736935354
0.00662061899749
0.0166849809945
0.0123659195407
0.0138837345049
0.0163249901521
0.0110124181346
0.01202557486
0.012716309687
0.0123170969618
0.0125578667945
0.0128135761236
0.0139337615988
0.0135046883332
0.00971880118736
0.0145685677776
0.0306811087933
0.0309889224835
0.0305361742321
0.0338911297008
0.026651135525
0.0240838774459
0.022211888961
0.0264520156651
0.0304933919153
0.0364782435036
0.0424304512576
0.0384872005071
0.0317482505936
0.0441799388463
0.054036330336
0.007910969767
0.00987325669716
0.0238301619283
0.0149770210794
0.0365513036737
0.0454612014941
0.00651237148342
0.0122145057738
0.0513518223531
0.00857473449232
0.010547948426
0.0254899672165
0.00865422675151
0.00845052636355
0.00826048641232
0.00751580204195
0.00676984116607
0.00750030640415
0.0086346792238
0.0075038648719
0.00725747329467
0.00607049633013
0.00775019363104
0.0136309465285
0.0123581799668
0.0158554309719
0.00895355889147
0.00736384829652
0.00817398960224
0.00764961266015
0.00983548792589
0.00684973446918
0.0141234881801
0.00873626228616
0.00563338856818
0.00857175816889
0.00477376390425
0.014079515916
0.0105464103015
0.0128448877134
0.0125573303035
0.0086177145596
0.0094780784055
0.0115836456173
0.0122920969682
0.0161350899787
0.0170176494242
0.0124893158019
0.0156587465494
0.016256957471
0.0101540291152
0.0132280147885
0.0125856446802
0.00724887301817
0.0130729334687
0.0110903165555
0.0124262787454
0.0126703576228
0.00783522587517
0.00834973027506
0.00754279359729
0.0106109936428
0.00560853681756
0.00962555117148
0.00658943201597
0.0058771008586
0.00458789018839
0.00601287430527
0.00832186442074
0.00347614087044
0.00339463651659
0.00408847560443
0.00161432331056
0.00147467668322
0.00137444320513
0.00718305615736
0.00529433919697
0.00103773328709
0.0011217192869
0.00103883070477
0.00100580812602
0.00134006380698
0.00114381627994
0.00248496584006
0.00144570761548
0.00198095362517
0.00150251126118
0.0010232012769
0.0013415442676
0.00232533717567
0.00125147786101
0.00125307539659
0.00104813992963
0.00111743325451
0.00151612082246
0.00160135497592
0.00191105124458
0.00447960211927
0.00602477622027
0.00430032045633
0.00441820476868
0.00244201380674
0.0136161051301
0.00864933029117
0.0123785980105
0.00732255002866
0.015147924099
0.0154402691136
0.0229105544729
0.0149951116388
0.00339536373003
0.00584534565363
0.00518579816623
0.00678438125503
0.0139372418635
0.00194740540026
0.00254830097373
0.00128678943906
0.00152788128653
0.00129098449571
0.00133891411435
0.00194091551342
0.0016864441429
0.00266865365111
0.00189936408209
0.00144308013866
0.00328157778751
0.00390056985376
0.0121558180931
0.00858135545537
0.00257971390342
0.00671671703111
0.00165235578653
0.00174197779398
0.00267366253587
0.00713074088966
0.00159759900268
0.00153485192677
0.00116956573929
0.00119154109264
0.00177394143561
0.00160171545963
0.00246411583411
0.00663388254257
0.00218254713084
0.00652194450658
0.00128534709683
0.00137481605116
0.0014148206577
0.00133061093432
0.00139118043885
0.00157671216049
0.00167138032597
0.00421596564205
0.0044318387283
0.00757143224914
0.0017425215853
0.00151835195192
0.00784456661676
0.0119226020001
0.00944118096356
0.0116618606763
0.00149759332971
0.00163596032875
0.00147215791561
0.001476169785
0.00150995043547
0.00170889293021
0.00159944525744
0.0022350322483
0.00136639862383
0.00165193110217
0.0066599272574
0.0148394213038
0.0139116770214
0.0121474365721
0.0153780390866
0.0116933431343
0.012571250075
0.0123329471224
0.0117015079366
0.0119760628152
0.0126317893143
0.0138686893793
0.0130270602581
0.0155706103587
0.0143485001227
0.0132605186816
0.023263129765
0.0735517715332
0.0180959119935
0.0257811540152
0.0298206244061
0.0101882572644
0.0198756224056
0.0232485789854
0.0198383328355
0.0262387972564
0.0289763622429
0.0327628376627
0.0340721353617
0.0402156976749
0.0186316192549
0.0422935216045
0.047108131695
0.00697089451457
0.0135134610746
0.0122608485092
0.0111554546912
0.0134514708004
0.0596235272983
0.0336725029085
0.00408280770864
0.00986630478383
0.0141734798144
0.0377846948673
0.0111304064851
0.010659230251
0.0312947121284
0.00906558366074
0.00797023440706
0.0110398090778
0.0103088889404
0.00965075037202
0.0109978253837
0.0076622053424
0.00729521258078
0.00840830833604
0.0106208153865
0.0180007427438
0.00779850664048
0.00908129899093
0.0139719605329
0.0118146469366
0.0176902315516
0.0116307844993
0.0136646658747
0.010304102866
0.0123743094727
0.0119976369414
0.0159070186672
0.0144333559103
0.011004432022
0.0148363298214
0.0135982160305
0.0172019100609
0.00596109379417
0.00443357124343
0.00359561442747
0.0136806805008
0.00769548021244
0.00953070399244
0.018694523617
0.0189751000447
0.0188282001405
0.0106742826544
0.0118271923099
0.0165593066854
0.0146705235115
0.0168012304064
0.0220527741165
0.0208017093292
0.0134861363625
0.0163484690719
0.0150092010198
0.00953020316679
0.0149860431257
0.00662964147227
0.0096921897801
0.0147753365369
0.0151847894063
0.0104254626381
0.0159143894942
0.0117222929526
0.0101520207396
0.0119024196497
0.00588290331551
0.00896855595012
0.0074608350593
0.00863309034985
0.0180686554067
0.00487384821288
0.00459113625985
0.00488714981974
0.00470654616541
0.00162198498442
0.00165917561765
0.00388247412867
0.0026514716066
0.00145804633634
0.00123204305671
0.00553630716605
0.0010882257101
0.000995933490527
0.0011011281799
0.00107859757007
0.00101937747378
0.00104956665371
0.000986714107612
0.00101030394205
0.00100156456349
0.00113446580818
0.00115676212439
0.0016820240858
0.00163195077359
0.00149917947282
0.00323741698222
0.00133396170495
0.00244488873069
0.00120443013084
0.00112123351673
0.00098683465146
0.00103150523402
0.0011168330112
0.00123188090091
0.00442576477218
0.00141848357021
0.00295048043472
0.00114777533537
0.00105723954026
0.0010278527085
0.00113672856535
0.00110651723382
0.00158182346622
0.00161813330014
0.00450074291787
0.00165567704266
0.00484736453574
0.00539172656644
0.00468563021049
0.00203670632265
0.00525119974015
0.00263008649139
0.00597100025824
0.0148931728218
0.0220018163366
0.0171609176428
0.00575756160044
0.00603297346147
0.0148575451551
0.00584015730049
0.0119944938475
0.025829193837
0.0177435973571
0.00417360801766
0.00426316791199
0.00368443985992
0.00549283424259
0.0137654644211
0.00145983940706
0.00113486224412
0.00182381261563
0.00111864631726
0.00127382650946
0.00118727834331
0.00136610426993
0.00172068091843
0.00119650123837
0.0011401593385
0.00116893762976
0.00161179637768
0.00110690183767
0.00227756438535
0.0023717707563
0.00335690339165
0.0107113154305
0.00222876828441
0.00759510392603
0.0011979544229
0.00199193875936
0.00590552132211
0.00113869018368
0.00126117776207
0.00165648969453
0.00221018490888
0.00183079830398
0.00577298977498
0.00118073082679
0.00107374729969
0.0010540643532
0.00126194553386
0.0012811969404
0.00205059526007
0.00616290840463
0.00195689478752
0.0059067955492
0.00122787244724
0.00132621628794
0.00130999641413
0.00146987197908
0.00157247042512
0.00380162604555
0.00557060963517
0.00154747207294
0.00137737337705
0.0015138698609
0.00144408399368
0.00960808779778
0.00736196041786
0.0176731701396
0.00748503276574
0.018060168653
0.00971023737258
0.00128421313779
0.00124174902705
0.00116134798961
0.00120950220293
0.00122256397667
0.00127560962098
0.00143997698635
0.00134166302639
0.00137264493038
0.0010719475663
0.00159360672263
0.00130455328336
0.0018373304143
0.00665960111471
0.00638037239524
0.0128268407036
0.0108462153307
0.00819187923283
0.0127610546139
0.0143444486362
0.00909327349288
0.0126171372349
0.0113543531367
0.0123050428107
0.0115123954736
0.0115657950165
0.0116594311211
0.0121624613966
0.0134152686087
0.0111151963288
0.0138593678585
0.0141716757988
0.0134495819248
0.029755156276
0.0243683960029
0.0219734721413
0.0225861813978
0.0194561912806
0.0182775080337
0.0226721501453
0.0196437560391
0.025318987042
0.0277535021469
0.0303288738263
0.0359742080744
0.038100219774
0.0323817193799
0.0397879851743
0.0448774031293
0.0550935405398
0.00651814323865
0.01073697098
0.00429313374531
0.00677896096143
0.0250506604156
0.0103716149518
0.0441472514638
0.0366827112369
0.00358510941327
0.0140650368086
0.0120486294708
0.0385836163451
0.00301385480808
0.0111862478647
0.0113440750808
0.0213774072994
0.00985736873921
0.0113919882351
0.0087750566677
0.0125054728385
0.0158502069655
0.0257950800062
0.00720816077851
0.0138729454783
0.00498993300406
0.00324679366183
0.0127801546048
0.0215132023204
0.0137113801809
0.00992365506433
0.0133752518096
0.0126638115761
0.00640917468943
0.0169278308184
0.0044154348685
0.0156907605583
0.0144855733681
0.0163861168743
0.0138685999195
0.0172918246261
0.0189233787808
0.0192300242036
0.021506271786
0.0123260650701
0.0131236503311
0.0114575840151
0.0116649977464
0.0126409529152
0.0162821456237
0.00350012264996
0.00455937126267
0.00619110261108
0.00653147808615
0.0180102303618
0.020700597932
0.0363718563088
0.0142304001563
0.0159480610986
0.0183517919382
0.0260933630315
0.0159523758126
0.0235979231441
0.0243592532485
0.0211520886381
0.0168950770494
0.0153551416619
0.0146520882214
0.0133851082466
0.0151395272353
0.00834561968137
0.0148793051701
0.0179772127362
0.0157332651749
0.0120092901573
0.0175029389884
0.0184247561386
0.0141667046907
0.0151719839333
0.0111691514744
0.0129601253897
0.00709846462967
0.00852914514192
0.0127127918589
0.00654437360182
0.0112318430371
0.0151495791288
0.0228956459663
0.00435934127066
0.00304633121832
0.00146143548321
0.00286973074504
0.00128211009076
0.00135167476038
0.00587887355768
0.0010579325818
0.00111630508701
0.00102297682028
0.00109762737362
0.00116411047521
0.00108356536828
0.00110370113894
0.00102995236875
0.00101698319735
0.00105642870553
0.000988088452944
0.000995755209669
0.00100921361744
0.00107610545705
0.00100459901611
0.00109401959512
0.00330979094448
0.00151204234915
0.00154185958086
0.00190399554333
0.00137136204114
0.0061474425328
0.00391930462252
0.00129130269664
0.00115886171906
0.00205158753862
0.00394092215874
0.00107948262385
0.000973879673232
0.000978264790872
0.00100280121777
0.00107195649961
0.00104811783656
0.00125354406785
0.00145542333069
0.00242292566468
0.00401781329184
0.00115060815066
0.00102665593934
0.00103233722737
0.00102790658576
0.00112536084853
0.00103834277317
0.00108886755282
0.00141325827628
0.00180690132566
0.00234452639069
0.00150967472761
0.00385421121026
0.00525066081899
0.00206145700189
0.00239394944144
0.00575078571295
0.0104685206183
0.0130409266147
0.00666978521696
0.0180895016904
0.0167127073124
0.0102721005596
0.00400161661317
0.00558862449414
0.00442437581071
0.0174991332256
0.00440510481422
0.0071843188449
0.00931546845335
0.0265857985503
0.0220468453619
0.0123410742776
0.0017025979894
0.0037919078256
0.00184823132508
0.00388243832042
0.00476295945028
0.0149325460419
0.0010630388785
0.00102265632168
0.0011291794271
0.00106963037141
0.00105674864811
0.00128766503938
0.00102918780413
0.00114833153831
0.0013294907371
0.00125958904343
0.00104332579771
0.00113967281255
0.00163888650114
0.00176923654987
0.00192623415612
0.00844000669887
0.0116434322972
0.00148127342915
0.00162860920661
0.00656730743146
0.00142946003384
0.00115664055332
0.00113112902924
0.00164958324165
0.0018906735828
0.00173939504194
0.00564240118241
0.00513642262128
0.00106233322597
0.00131988427741
0.00115091397745
0.0011630241519
0.00127748367668
0.00122112324693
0.00171936895708
0.00545366995454
0.00103949738758
0.00105388823925
0.00104788893453
0.00104554045877
0.00112540515578
0.00141359346513
0.00183204303269
0.0059916888089
0.00164141967825
0.00183149498653
0.00115315303828
0.00115128923481
0.00111569740209
0.00116608069991
0.00122035600768
0.00140399476613
0.00145811108144
0.00187370824826
0.0014314040231
0.00125200280229
0.00143874757202
0.00156437643519
0.00142398264928
0.00120551374598
0.00810506763522
0.00726060254704
0.00155938150941
0.0190387896387
0.00841187148603
0.0110525011839
0.00775262002623
0.0131678916869
0.00118234950739
0.00111822159155
0.00112062755468
0.00128303845102
0.00121681918632
0.00127962448624
0.00106935820686
0.00108718601111
0.00129383461211
0.00148076867258
0.00181444206544
0.00174457618834
0.00607251256392
0.00625367424659
0.0118940284761
0.00976069113538
0.00936702351135
0.0131014311314
0.0125290252437
0.00768068728788
0.012347639085
0.011068357931
0.0119355431425
0.0108230779566
0.0110135714096
0.0110368280028
0.0124991317544
0.0129449260993
0.0152272765089
0.0132393030948
0.0143651169848
0.0131006324607
0.0180175299976
0.0203606316982
0.0510740155124
0.01559734303
0.0185409329517
0.020549985543
0.00764364553434
0.0162041286443
0.0215190959467
0.0182582847337
0.0251159033441
0.0282965893314
0.0273175653241
0.0298676788066
0.0339025672063
0.0214166945643
0.0384063306865
0.0444734364079
0.0490719261732
0.00538201472703
0.0135603050173
0.00699327074786
0.00389340930456
0.00963977392575
0.0114836045634
0.0329176066524
0.0481860020375
0.00348366584755
0.0149111893727
0.0118976768426
0.0311199229033
0.00277687138522
0.011604493033
0.0104839317073
0.0267578902818
0.00663658905793
0.00891775867729
0.00363798891541
0.0356315272165
0.0168417231348
0.00508684845384
0.00305098768895
0.0145539526189
0.0251936524
0.0143088984235
0.0158654472514
0.0127395171135
0.017857403625
0.00693333757326
0.00857223878299
0.00435977570957
0.0192606212426
0.0274495558984
0.0123548695905
0.0129929584562
0.0198609795405
0.0193635974776
0.0263112197558
0.0231569626479
0.0180754602204
0.0157721734255
0.0243106920675
0.00426444307586
0.00931358918231
0.00790999236455
0.00499342021664
0.00880551448917
0.00989564697379
0.0155101099163
0.0311334932641
0.00365041430443
0.00149301480911
0.00403331312611
0.00626180107554
0.00950457500993
0.0145112080205
0.0139666449251
0.0271386930947
0.0159327796206
0.0172707156996
0.0194871576191
0.0187847441751
0.0215862131942
0.019166041771
0.0200820921824
0.0258920425911
0.0269488565848
0.0234401811792
0.0194012206768
0.0176452656115
0.0125334120901
0.011688382096
0.0180445749561
0.0110743942802
0.0169431395566
0.0214983902231
0.0171699317525
0.0203393177537
0.0176895673759
0.0240658480112
0.0255629389882
0.0180422303956
0.0182592226835
0.00998153266065
0.0124765091741
0.0166824273935
0.00579083967958
0.00708268639478
0.0110371541572
0.0136039233826
0.00723806245526
0.0164081709559
0.0100025906771
0.0211068163039
0.0263874505222
0.00390422858447
0.00533327673885
0.00292842777653
0.00168165365803
0.00221748020647
0.00123375737162
0.00109697480206
0.00106069796598
0.00105403837211
0.00108716143243
0.00101574124537
0.00102469975528
0.00111857327541
0.0011783199955
0.00107568706458
0.00111416173416
0.00102429080936
0.00105087757789
0.00101414740437
0.00101493402885
0.00107110273892
0.000994671852308
0.00103964324898
0.000979712973568
0.00426712041477
0.00162590802194
0.00178870646152
0.00207645182709
0.00181364967651
0.00353074028631
0.00119711241978
0.00120871799414
0.00097709834856
0.00112259301577
0.00191692925238
0.00197800362848
0.0035467908577
0.00130696522485
0.00105909542214
0.000984024081579
0.000965219815283
0.00103161906762
0.000952464496605
0.000948553341047
0.00104533126514
0.00240595026654
0.00272229772791
0.00103054205721
0.00104732039662
0.00103673205789
0.00103211786947
0.00103883742617
0.00101316130044
0.00101073406716
0.00108230882607
0.00138175664811
0.00172290391664
0.00428600826674
0.00224769203931
0.00143792658891
0.0020245395163
0.00182084309806
0.00164573033474
0.00496820771523
0.00550054159006
0.0109771216025
0.0121452048918
0.00364765296587
0.00817770181517
0.00956790527768
0.0116254430478
0.0147111323328
0.0104363372496
0.00205432812437
0.00369754584363
0.00463594270977
0.00405422688543
0.0182348232836
0.00349731820154
0.003199514495
0.00350632586328
0.00637513604274
0.0251956589198
0.0181697611934
0.0104270702848
0.0116789124348
0.00296984475757
0.00118151220284
0.00340017625964
0.0133444312802
0.00103123990345
0.00102853226136
0.00101492676255
0.00104645764548
0.001020561507
0.00109186664672
0.00104054549094
0.00126873202625
0.00123468286102
0.00116148944161
0.00133278493986
0.00103009133447
0.00106512061288
0.00104155513405
0.0013431680914
0.00171528881671
0.00121182478114
0.00138085229593
0.00769834953559
0.0101706333567
0.00117983584225
0.00145261274415
0.00156700492659
0.0058924328354
0.00139937899512
0.00129224410036
0.00108195733565
0.00113838243681
0.00110286355991
0.00118357621558
0.00125597422472
0.00118153355962
0.00140130901338
0.00207125907628
0.00505975421817
0.00168862638627
0.00479478583405
0.00105834603345
0.00116956602946
0.0011308968319
0.00108205839537
0.00122291374224
0.00131711361132
0.00166833725157
0.00162312244896
0.00177163721994
0.00553427047448
0.00102913923053
0.00105650796615
0.00103459883777
0.00103800657961
0.0010504023993
0.00102701343526
0.0010997458035
0.00134727687797
0.00138245500319
0.00159909297949
0.0016665740324
0.00172757719074
0.00573413769488
0.00141934740586
0.00144690098264
0.00111963062441
0.0011025339189
0.00117503351859
0.00115191495019
0.00156204233921
0.00109008222201
0.00114565658411
0.00116884704613
0.00120989344044
0.00132334771027
0.00126600925851
0.00113172936537
0.00890677512877
0.0134978584709
0.00719049300775
0.00799298202566
0.00226977977496
0.0018610045959
0.0253429125902
0.00799496734912
0.00220120171006
0.0175493236751
0.00946137036363
0.00102029372433
0.00110071753967
0.00109846674131
0.00119705513044
0.0012339655689
0.00119320919207
0.00104638216519
0.00100384344379
0.00103919979226
0.00123915417483
0.00128200074652
0.00139224601759
0.00141747126881
0.00146549858949
0.00150090575158
0.00140788192904
0.00161727659894
0.00586420473532
0.0063508421681
0.00202193778647
0.0060590274286
0.0100307514607
0.0115502187381
0.00957395288253
0.0072864234801
0.0127698678646
0.00952044803882
0.00535995514526
0.0117834841079
0.0107466076068
0.0116093011753
0.0104712737223
0.0104269765596
0.0105838803938
0.0108575122235
0.0118489517251
0.00597627156665
0.0129815184675
0.0141074719091
0.0143341570441
0.0182303723634
0.0171258689903
0.0244187419261
0.0126575530483
0.0143677990649
0.014258261169
0.014913252974
0.0166997966124
0.0222747363961
0.0192165882337
0.0241498519493
0.0266671804254
0.0272665573487
0.0315109497904
0.0273214224168
0.036089495048
0.0336179757468
0.0422325515758
0.0465267061251
0.0566503028274
0.00610124813445
0.0119322603865
0.0116773246084
0.00913215328013
0.0211257609673
0.0365662148017
0.0288176813524
0.00305961764475
0.0146268804
0.0126073110031
0.0339456439434
0.00281644597012
0.0137308428179
0.0103778004298
0.0214354044211
0.00655826433652
0.00493162304774
0.00425580059206
0.0031288616268
0.0360687248658
0.0162204382827
0.0227569763913
0.0260439252956
0.0197221117197
0.0166608562253
0.0117219699672
0.00651709947219
0.00788418331087
0.00221411318837
0.0270623165508
0.00821889143892
0.00672730099715
0.0265114675531
0.0215819528594
0.024976249285
0.0297166802186
0.0293756364211
0.016616817648
0.0151668591078
0.0193633221679
0.0241433683883
0.0255039573789
0.00212297767124
0.00336928693854
0.00891514340808
0.00655927438954
0.007544847707
0.0106163372496
0.00998083732715
0.0257721856143
0.0031376814772
0.00143625951776
0.00233160261125
0.00294469650138
0.00581677441726
0.00443313038936
0.0179688257779
0.00499460494801
0.00873058652273
0.0371915463365
0.0186501414159
0.0221448841794
0.0293057740903
0.0314941560627
0.0357136421487
0.017899315397
0.0161877604185
0.0277005013651
0.0259406681214
0.0215967274553
0.0170352392126
0.0187485155091
0.0152157480589
0.0120784599215
0.0100909533947
0.0235979653641
0.0274520747437
0.0227348555269
0.0258468250795
0.0176717549571
0.0199942594727
0.0188969652021
0.0121083459333
0.0105660654127
0.00936652954301
0.0147976249292
0.0239975636511
0.0180856539141
0.00744030170845
0.00754728866993
0.00552685798237
0.0118500519376
0.0157376390174
0.0136541449472
0.019136462339
0.00855697126388
0.0250595221143
0.0278975921619
0.00460180421755
0.00148265087954
0.00112549229284
0.00109811253219
0.00106539702353
0.00104213303694
0.00121383673236