# Selection : patch(face27)
# Faces  :    106
# Area   :    1.506279e-04
# Time        	sum(T)
0             	0.000000e+00
32            	1.706985e+06
