# vtk DataFile Version 2.0
DGS printing
ASCII
DATASET UNSTRUCTURED_GRID
POINTS  72  floats
21.26635 19.81995 20.81800 21.29095 19.77065 20.81800 21.24165 19.74605 20.81800 
21.21705 19.79535 20.81800 21.26635 19.81995 19.37603 21.29095 19.77065 19.37603 
21.24165 19.74605 19.37603 21.21705 19.79535 19.37603 21.28886 19.80040 20.81800 
21.27140 19.74814 20.81800 21.21914 19.76560 20.81800 21.23660 19.81786 20.81800 
21.28886 19.80040 19.37603 21.27140 19.74814 19.37603 21.21914 19.76560 19.37603 
21.23660 19.81786 19.37603 21.26635 19.81995 20.09702 21.29095 19.77065 20.09702 
21.24165 19.74605 20.09702 21.21705 19.79535 20.09702 21.23660 19.81786 20.09702 
21.27140 19.74814 20.09702 21.28886 19.80040 20.09702 21.21914 19.76560 20.09702 
21.28848 20.80113 17.93410 21.23587 20.81748 17.93410 21.21952 20.76487 17.93410 
21.27213 20.74852 17.93410 21.28848 20.80113 19.37607 21.23587 20.81748 19.37607 
21.21952 20.76487 19.37607 21.27213 20.74852 19.37607 21.26556 20.82020 17.93410 
21.21680 20.79456 17.93410 21.24244 20.74580 17.93410 21.29120 20.77144 17.93410 
21.26556 20.82020 19.37607 21.21680 20.79456 19.37607 21.24244 20.74580 19.37607 
21.29120 20.77144 19.37607 21.28848 20.80113 18.65508 21.23587 20.81748 18.65508 
21.21952 20.76487 18.65508 21.27213 20.74852 18.65508 21.29120 20.77144 18.65508 
21.21680 20.79456 18.65508 21.26556 20.82020 18.65508 21.24244 20.74580 18.65508 
21.28898 20.80016 16.37600 21.23684 20.81798 16.37600 21.21902 20.76584 16.37600 
21.27116 20.74802 16.37600 21.28898 20.80016 17.81797 21.23684 20.81798 17.81797 
21.21902 20.76584 17.81797 21.27116 20.74802 17.81797 21.26660 20.81987 16.37600 
21.21713 20.79560 16.37600 21.24140 20.74613 16.37600 21.29087 20.77040 16.37600 
21.26660 20.81987 17.81797 21.21713 20.79560 17.81797 21.24140 20.74613 17.81797 
21.29087 20.77040 17.81797 21.28898 20.80016 17.09698 21.23684 20.81798 17.09698 
21.21902 20.76584 17.09698 21.27116 20.74802 17.09698 21.29087 20.77040 17.09698 
21.21713 20.79560 17.09698 21.26660 20.81987 17.09698 21.24140 20.74613 17.09698 
CELLS  3   75
24 0 1 2 3 4 5 6 7 8 9 10 11 12 13 14 15 16 17 18 19 20 21 22 23
24 24 25 26 27 28 29 30 31 32 33 34 35 36 37 38 39 40 41 42 43 44 45 46 47
24 48 49 50 51 52 53 54 55 56 57 58 59 60 61 62 63 64 65 66 67 68 69 70 71
CELL_TYPES  3 
33
33
33
CELL_DATA  3 
SCALARS node_id int 1 
LOOKUP_TABLE default
1
2
3
SCALARS average_vol_activity_bq_m3 double 1 
LOOKUP_TABLE default
0.00000e+00
0.00000e+00
0.00000e+00
SCALARS total_activity_bq double 1 
LOOKUP_TABLE default
0.00000e+00
0.00000e+00
0.00000e+00
SCALARS mc_error double 1 
LOOKUP_TABLE default
0.00000
0.00000
0.00000
