# vtk DataFile Version 2.0
DGS printing
ASCII
DATASET UNSTRUCTURED_GRID
POINTS  72  floats
21.25809 19.82174 20.81800 21.29274 19.77891 20.81800 21.24991 19.74426 20.81800 
21.21526 19.78709 20.81800 21.25809 19.82174 19.37603 21.29274 19.77891 19.37603 
21.24991 19.74426 19.37603 21.21526 19.78709 19.37603 21.28429 19.80750 20.81800 
21.27850 19.75271 20.81800 21.22371 19.75850 20.81800 21.22950 19.81329 20.81800 
21.28429 19.80750 19.37603 21.27850 19.75271 19.37603 21.22371 19.75850 19.37603 
21.22950 19.81329 19.37603 21.25809 19.82174 20.09702 21.29274 19.77891 20.09702 
21.24991 19.74426 20.09702 21.21526 19.78709 20.09702 21.22950 19.81329 20.09702 
21.27850 19.75271 20.09702 21.28429 19.80750 20.09702 21.22371 19.75850 20.09702 
21.26692 20.81976 17.93410 21.21724 20.79592 17.93410 21.24108 20.74624 17.93410 
21.29076 20.77008 17.93410 21.26692 20.81976 19.37607 21.21724 20.79592 19.37607 
21.24108 20.74624 19.37607 21.29076 20.77008 19.37607 21.23714 20.81812 17.93410 
21.21888 20.76614 17.93410 21.27086 20.74788 17.93410 21.28912 20.79986 17.93410 
21.23714 20.81812 19.37607 21.21888 20.76614 19.37607 21.27086 20.74788 19.37607 
21.28912 20.79986 19.37607 21.26692 20.81976 18.65508 21.21724 20.79592 18.65508 
21.24108 20.74624 18.65508 21.29076 20.77008 18.65508 21.28912 20.79986 18.65508 
21.21888 20.76614 18.65508 21.23714 20.81812 18.65508 21.27086 20.74788 18.65508 
21.28058 20.81149 16.37600 21.22551 20.80958 16.37600 21.22742 20.75451 16.37600 
21.28249 20.75642 16.37600 21.28058 20.81149 17.81797 21.22551 20.80958 17.81797 
21.22742 20.75451 17.81797 21.28249 20.75642 17.81797 21.25265 20.82194 16.37600 
21.21506 20.78165 16.37600 21.25535 20.74406 16.37600 21.29294 20.78435 16.37600 
21.25265 20.82194 17.81797 21.21506 20.78165 17.81797 21.25535 20.74406 17.81797 
21.29294 20.78435 17.81797 21.28058 20.81149 17.09698 21.22551 20.80958 17.09698 
21.22742 20.75451 17.09698 21.28249 20.75642 17.09698 21.29294 20.78435 17.09698 
21.21506 20.78165 17.09698 21.25265 20.82194 17.09698 21.25535 20.74406 17.09698 
CELLS  3   75
24 0 1 2 3 4 5 6 7 8 9 10 11 12 13 14 15 16 17 18 19 20 21 22 23
24 24 25 26 27 28 29 30 31 32 33 34 35 36 37 38 39 40 41 42 43 44 45 46 47
24 48 49 50 51 52 53 54 55 56 57 58 59 60 61 62 63 64 65 66 67 68 69 70 71
CELL_TYPES  3 
33
33
33
CELL_DATA  3 
SCALARS average_vol_activity_bq_m3 double 1 
LOOKUP_TABLE default
28.66108
35.31962
0.00000
SCALARS total_activity_bq double 1 
LOOKUP_TABLE default
0.19708
0.24286
0.00000
SCALARS mc_error double 1 
LOOKUP_TABLE default
0.00000
0.00000
0.00000
