# vtk DataFile Version 2.0
DGS printing
ASCII
DATASET UNSTRUCTURED_GRID
POINTS  72  floats
21.27830 19.81346 20.81800 21.28446 19.75870 20.81800 21.22970 19.75254 20.81800 
21.22354 19.80730 20.81800 21.27830 19.81346 19.37603 21.28446 19.75870 19.37603 
21.22970 19.75254 19.37603 21.22354 19.80730 19.37603 21.29272 19.78736 20.81800 
21.25836 19.74428 20.81800 21.21528 19.77864 20.81800 21.24964 19.82172 20.81800 
21.29272 19.78736 19.37603 21.25836 19.74428 19.37603 21.21528 19.77864 19.37603 
21.24964 19.82172 19.37603 21.27830 19.81346 20.09702 21.28446 19.75870 20.09702 
21.22970 19.75254 20.09702 21.22354 19.80730 20.09702 21.24964 19.82172 20.09702 
21.25836 19.74428 20.09702 21.29272 19.78736 20.09702 21.21528 19.77864 20.09702 
21.25656 20.82188 17.93410 21.21512 20.78556 17.93410 21.25144 20.74412 17.93410 
21.29288 20.78044 17.93410 21.25656 20.82188 19.37607 21.21512 20.78556 19.37607 
21.25144 20.74412 19.37607 21.29288 20.78044 19.37607 21.22832 20.81230 17.93410 
21.22470 20.75732 17.93410 21.27968 20.75370 17.93410 21.28330 20.80868 17.93410 
21.22832 20.81230 19.37607 21.22470 20.75732 19.37607 21.27968 20.75370 19.37607 
21.28330 20.80868 19.37607 21.25656 20.82188 18.65508 21.21512 20.78556 18.65508 
21.25144 20.74412 18.65508 21.29288 20.78044 18.65508 21.28330 20.80868 18.65508 
21.22470 20.75732 18.65508 21.22832 20.81230 18.65508 21.27968 20.75370 18.65508 
21.26003 20.82149 16.37600 21.21551 20.78903 16.37600 21.24797 20.74451 16.37600 
21.29249 20.77697 16.37600 21.26003 20.82149 17.81797 21.21551 20.78903 17.81797 
21.24797 20.74451 17.81797 21.29249 20.77697 17.81797 21.23104 20.81448 16.37600 
21.22252 20.76004 16.37600 21.27696 20.75152 16.37600 21.28548 20.80596 16.37600 
21.23104 20.81448 17.81797 21.22252 20.76004 17.81797 21.27696 20.75152 17.81797 
21.28548 20.80596 17.81797 21.26003 20.82149 17.09698 21.21551 20.78903 17.09698 
21.24797 20.74451 17.09698 21.29249 20.77697 17.09698 21.28548 20.80596 17.09698 
21.22252 20.76004 17.09698 21.23104 20.81448 17.09698 21.27696 20.75152 17.09698 
CELLS  3   75
24 0 1 2 3 4 5 6 7 8 9 10 11 12 13 14 15 16 17 18 19 20 21 22 23
24 24 25 26 27 28 29 30 31 32 33 34 35 36 37 38 39 40 41 42 43 44 45 46 47
24 48 49 50 51 52 53 54 55 56 57 58 59 60 61 62 63 64 65 66 67 68 69 70 71
CELL_TYPES  3 
33
33
33
CELL_DATA  3 
SCALARS average_vol_activity_bq_m3 double 1 
LOOKUP_TABLE default
0.00000
0.00000
0.00000
SCALARS total_activity_bq double 1 
LOOKUP_TABLE default
0.00000
0.00000
0.00000
SCALARS mc_error double 1 
LOOKUP_TABLE default
0.00000
0.00000
0.00000
