# vtk DataFile Version 2.0
DGS printing
ASCII
DATASET UNSTRUCTURED_GRID
POINTS  72  floats
21.26708 19.81970 20.81800 21.29070 19.76992 20.81800 21.24092 19.74630 20.81800 
21.21730 19.79608 20.81800 21.26708 19.81970 19.37603 21.29070 19.76992 19.37603 
21.24092 19.74630 19.37603 21.21730 19.79608 19.37603 21.28920 19.79970 20.81800 
21.27070 19.74780 20.81800 21.21880 19.76630 20.81800 21.23730 19.81820 20.81800 
21.28920 19.79970 19.37603 21.27070 19.74780 19.37603 21.21880 19.76630 19.37603 
21.23730 19.81820 19.37603 21.26708 19.81970 20.09702 21.29070 19.76992 20.09702 
21.24092 19.74630 20.09702 21.21730 19.79608 20.09702 21.23730 19.81820 20.09702 
21.27070 19.74780 20.09702 21.28920 19.79970 20.09702 21.21880 19.76630 20.09702 
21.27417 20.81633 17.93410 21.22067 20.80317 17.93410 21.23383 20.74967 17.93410 
21.28733 20.76283 17.93410 21.27417 20.81633 19.37607 21.22067 20.80317 19.37607 
21.23383 20.74967 19.37607 21.28733 20.76283 19.37607 21.24469 20.82083 17.93410 
21.21617 20.77369 17.93410 21.26331 20.74517 17.93410 21.29183 20.79231 17.93410 
21.24469 20.82083 19.37607 21.21617 20.77369 19.37607 21.26331 20.74517 19.37607 
21.29183 20.79231 19.37607 21.27417 20.81633 18.65508 21.22067 20.80317 18.65508 
21.23383 20.74967 18.65508 21.28733 20.76283 18.65508 21.29183 20.79231 18.65508 
21.21617 20.77369 18.65508 21.24469 20.82083 18.65508 21.26331 20.74517 18.65508 
21.27674 20.81464 16.37600 21.22236 20.80574 16.37600 21.23126 20.75136 16.37600 
21.28564 20.76026 16.37600 21.27674 20.81464 17.81797 21.22236 20.80574 17.81797 
21.23126 20.75136 17.81797 21.28564 20.76026 17.81797 21.24771 20.82145 16.37600 
21.21555 20.77671 16.37600 21.26029 20.74455 16.37600 21.29245 20.78929 16.37600 
21.24771 20.82145 17.81797 21.21555 20.77671 17.81797 21.26029 20.74455 17.81797 
21.29245 20.78929 17.81797 21.27674 20.81464 17.09698 21.22236 20.80574 17.09698 
21.23126 20.75136 17.09698 21.28564 20.76026 17.09698 21.29245 20.78929 17.09698 
21.21555 20.77671 17.09698 21.24771 20.82145 17.09698 21.26029 20.74455 17.09698 
CELLS  3   75
24 0 1 2 3 4 5 6 7 8 9 10 11 12 13 14 15 16 17 18 19 20 21 22 23
24 24 25 26 27 28 29 30 31 32 33 34 35 36 37 38 39 40 41 42 43 44 45 46 47
24 48 49 50 51 52 53 54 55 56 57 58 59 60 61 62 63 64 65 66 67 68 69 70 71
CELL_TYPES  3 
33
33
33
CELL_DATA  3 
SCALARS node_id int 1 
LOOKUP_TABLE default
1
2
3
SCALARS average_vol_activity_bq_m3 double 1 
LOOKUP_TABLE default
8.72167e+01
9.02577e+01
8.26402e+01
SCALARS total_activity_bq double 1 
LOOKUP_TABLE default
5.99713e-01
6.20624e-01
5.68245e-01
SCALARS mc_error double 1 
LOOKUP_TABLE default
0.00000
0.00000
0.00144
