# vtk DataFile Version 2.0
DGS printing
ASCII
DATASET UNSTRUCTURED_GRID
POINTS  72  floats
21.29287 19.78561 20.81800 21.25661 19.74413 20.81800 21.21513 19.78039 20.81800 
21.25139 19.82187 20.81800 21.29287 19.78561 19.37603 21.25661 19.74413 19.37603 
21.21513 19.78039 19.37603 21.25139 19.82187 19.37603 21.28333 19.75736 20.81800 
21.22836 19.75367 20.81800 21.22467 19.80864 20.81800 21.27964 19.81233 20.81800 
21.28333 19.75736 19.37603 21.22836 19.75367 19.37603 21.22467 19.80864 19.37603 
21.27964 19.81233 19.37603 21.29287 19.78561 20.09702 21.25661 19.74413 20.09702 
21.21513 19.78039 20.09702 21.25139 19.82187 20.09702 21.27964 19.81233 20.09702 
21.22836 19.75367 20.09702 21.28333 19.75736 20.09702 21.22467 19.80864 20.09702 
21.29214 20.79097 17.93410 21.24603 20.82114 17.93410 21.21586 20.77503 17.93410 
21.26197 20.74486 17.93410 21.29214 20.79097 19.37607 21.24603 20.82114 19.37607 
21.21586 20.77503 19.37607 21.26197 20.74486 19.37607 21.27533 20.81560 17.93410 
21.22140 20.80433 17.93410 21.23267 20.75040 17.93410 21.28660 20.76167 17.93410 
21.27533 20.81560 19.37607 21.22140 20.80433 19.37607 21.23267 20.75040 19.37607 
21.28660 20.76167 19.37607 21.29214 20.79097 18.65508 21.24603 20.82114 18.65508 
21.21586 20.77503 18.65508 21.26197 20.74486 18.65508 21.28660 20.76167 18.65508 
21.22140 20.80433 18.65508 21.27533 20.81560 18.65508 21.23267 20.75040 18.65508 
21.28409 20.80774 16.37600 21.22926 20.81309 16.37600 21.22391 20.75826 16.37600 
21.27874 20.75291 16.37600 21.28409 20.80774 17.81797 21.22926 20.81309 17.81797 
21.22391 20.75826 17.81797 21.27874 20.75291 17.81797 21.25778 20.82178 16.37600 
21.21522 20.78678 16.37600 21.25022 20.74422 16.37600 21.29278 20.77922 16.37600 
21.25778 20.82178 17.81797 21.21522 20.78678 17.81797 21.25022 20.74422 17.81797 
21.29278 20.77922 17.81797 21.28409 20.80774 17.09698 21.22926 20.81309 17.09698 
21.22391 20.75826 17.09698 21.27874 20.75291 17.09698 21.29278 20.77922 17.09698 
21.21522 20.78678 17.09698 21.25778 20.82178 17.09698 21.25022 20.74422 17.09698 
CELLS  3   75
24 0 1 2 3 4 5 6 7 8 9 10 11 12 13 14 15 16 17 18 19 20 21 22 23
24 24 25 26 27 28 29 30 31 32 33 34 35 36 37 38 39 40 41 42 43 44 45 46 47
24 48 49 50 51 52 53 54 55 56 57 58 59 60 61 62 63 64 65 66 67 68 69 70 71
CELL_TYPES  3 
33
33
33
CELL_DATA  3 
SCALARS average_vol_activity_bq_m3 double 1 
LOOKUP_TABLE default
0.00000
0.00000
0.00000
SCALARS total_activity_bq double 1 
LOOKUP_TABLE default
0.00000
0.00000
0.00000
SCALARS mc_error double 1 
LOOKUP_TABLE default
0.00000
0.00000
0.00000
