# vtk DataFile Version 2.0
DGS printing
ASCII
DATASET UNSTRUCTURED_GRID
POINTS  72  floats
21.27646 19.81483 20.81800 21.28583 19.76054 20.81800 21.23154 19.75117 20.81800 
21.22217 19.80546 20.81800 21.27646 19.81483 19.37603 21.28583 19.76054 19.37603 
21.23154 19.75117 19.37603 21.22217 19.80546 19.37603 21.29239 19.78963 20.81800 
21.26063 19.74461 20.81800 21.21561 19.77637 20.81800 21.24737 19.82139 20.81800 
21.29239 19.78963 19.37603 21.26063 19.74461 19.37603 21.21561 19.77637 19.37603 
21.24737 19.82139 19.37603 21.27646 19.81483 20.09702 21.28583 19.76054 20.09702 
21.23154 19.75117 20.09702 21.22217 19.80546 20.09702 21.24737 19.82139 20.09702 
21.26063 19.74461 20.09702 21.29239 19.78963 20.09702 21.21561 19.77637 20.09702 
21.27299 20.81702 17.93410 21.21998 20.80199 17.93410 21.23501 20.74898 17.93410 
21.28802 20.76401 17.93410 21.27299 20.81702 19.37607 21.21998 20.80199 19.37607 
21.23501 20.74898 19.37607 21.28802 20.76401 19.37607 21.24337 20.82048 17.93410 
21.21652 20.77237 17.93410 21.26463 20.74552 17.93410 21.29148 20.79363 17.93410 
21.24337 20.82048 19.37607 21.21652 20.77237 19.37607 21.26463 20.74552 19.37607 
21.29148 20.79363 19.37607 21.27299 20.81702 18.65508 21.21998 20.80199 18.65508 
21.23501 20.74898 18.65508 21.28802 20.76401 18.65508 21.29148 20.79363 18.65508 
21.21652 20.77237 18.65508 21.24337 20.82048 18.65508 21.26463 20.74552 18.65508 
21.27455 20.81610 16.37600 21.22090 20.80355 16.37600 21.23345 20.74990 16.37600 
21.28710 20.76245 16.37600 21.27455 20.81610 17.81797 21.22090 20.80355 17.81797 
21.23345 20.74990 17.81797 21.28710 20.76245 17.81797 21.24513 20.82094 16.37600 
21.21606 20.77413 16.37600 21.26287 20.74506 16.37600 21.29194 20.79187 16.37600 
21.24513 20.82094 17.81797 21.21606 20.77413 17.81797 21.26287 20.74506 17.81797 
21.29194 20.79187 17.81797 21.27455 20.81610 17.09698 21.22090 20.80355 17.09698 
21.23345 20.74990 17.09698 21.28710 20.76245 17.09698 21.29194 20.79187 17.09698 
21.21606 20.77413 17.09698 21.24513 20.82094 17.09698 21.26287 20.74506 17.09698 
CELLS  3   75
24 0 1 2 3 4 5 6 7 8 9 10 11 12 13 14 15 16 17 18 19 20 21 22 23
24 24 25 26 27 28 29 30 31 32 33 34 35 36 37 38 39 40 41 42 43 44 45 46 47
24 48 49 50 51 52 53 54 55 56 57 58 59 60 61 62 63 64 65 66 67 68 69 70 71
CELL_TYPES  3 
33
33
33
CELL_DATA  3 
SCALARS node_id int 1 
LOOKUP_TABLE default
1
2
3
SCALARS average_vol_activity_bq_m3 double 1 
LOOKUP_TABLE default
2.86611e+01
3.53196e+01
0.00000e+00
SCALARS total_activity_bq double 1 
LOOKUP_TABLE default
1.97077e-01
2.42862e-01
0.00000e+00
SCALARS mc_error double 1 
LOOKUP_TABLE default
0.00000
0.00000
0.00000
