# vtk DataFile Version 2.0
DGS printing
ASCII
DATASET UNSTRUCTURED_GRID
POINTS  72  floats
21.29238 19.78973 20.81800 21.26073 19.74462 20.81800 21.21562 19.77627 20.81800 
21.24727 19.82138 20.81800 21.29238 19.78973 19.37603 21.26073 19.74462 19.37603 
21.21562 19.77627 19.37603 21.24727 19.82138 19.37603 21.28589 19.76062 20.81800 
21.23162 19.75111 20.81800 21.22211 19.80538 20.81800 21.27638 19.81489 20.81800 
21.28589 19.76062 19.37603 21.23162 19.75111 19.37603 21.22211 19.80538 19.37603 
21.27638 19.81489 19.37603 21.29238 19.78973 20.09702 21.26073 19.74462 20.09702 
21.21562 19.77627 20.09702 21.24727 19.82138 20.09702 21.27638 19.81489 20.09702 
21.23162 19.75111 20.09702 21.28589 19.76062 20.09702 21.22211 19.80538 20.09702 
21.26786 20.81941 17.93410 21.21759 20.79686 17.93410 21.24014 20.74659 17.93410 
21.29041 20.76914 17.93410 21.26786 20.81941 19.37607 21.21759 20.79686 19.37607 
21.24014 20.74659 19.37607 21.29041 20.76914 19.37607 21.23805 20.81855 17.93410 
21.21845 20.76705 17.93410 21.26995 20.74745 17.93410 21.28955 20.79895 17.93410 
21.23805 20.81855 19.37607 21.21845 20.76705 19.37607 21.26995 20.74745 19.37607 
21.28955 20.79895 19.37607 21.26786 20.81941 18.65508 21.21759 20.79686 18.65508 
21.24014 20.74659 18.65508 21.29041 20.76914 18.65508 21.28955 20.79895 18.65508 
21.21845 20.76705 18.65508 21.23805 20.81855 18.65508 21.26995 20.74745 18.65508 
21.28292 20.80911 16.37600 21.22789 20.81192 16.37600 21.22508 20.75689 16.37600 
21.28011 20.75408 16.37600 21.28292 20.80911 17.81797 21.22789 20.81192 17.81797 
21.22508 20.75689 17.81797 21.28011 20.75408 17.81797 21.25599 20.82191 16.37600 
21.21509 20.78499 16.37600 21.25201 20.74409 16.37600 21.29291 20.78101 16.37600 
21.25599 20.82191 17.81797 21.21509 20.78499 17.81797 21.25201 20.74409 17.81797 
21.29291 20.78101 17.81797 21.28292 20.80911 17.09698 21.22789 20.81192 17.09698 
21.22508 20.75689 17.09698 21.28011 20.75408 17.09698 21.29291 20.78101 17.09698 
21.21509 20.78499 17.09698 21.25599 20.82191 17.09698 21.25201 20.74409 17.09698 
CELLS  3   75
24 0 1 2 3 4 5 6 7 8 9 10 11 12 13 14 15 16 17 18 19 20 21 22 23
24 24 25 26 27 28 29 30 31 32 33 34 35 36 37 38 39 40 41 42 43 44 45 46 47
24 48 49 50 51 52 53 54 55 56 57 58 59 60 61 62 63 64 65 66 67 68 69 70 71
CELL_TYPES  3 
33
33
33
CELL_DATA  3 
SCALARS node_id int 1 
LOOKUP_TABLE default
1
2
3
SCALARS average_vol_activity_bq_m3 double 1 
LOOKUP_TABLE default
8.72167e+01
9.02577e+01
8.29126e+01
SCALARS total_activity_bq double 1 
LOOKUP_TABLE default
5.99713e-01
6.20624e-01
5.70118e-01
SCALARS mc_error double 1 
LOOKUP_TABLE default
0.00000
0.00000
0.00000
