# vtk DataFile Version 2.0
DGS printing
ASCII
DATASET UNSTRUCTURED_GRID
POINTS  72  floats
21.26236 19.82105 20.81800 21.29205 19.77464 20.81800 21.24564 19.74495 20.81800 
21.21595 19.79136 20.81800 21.26236 19.82105 19.37603 21.29205 19.77464 19.37603 
21.24564 19.74495 19.37603 21.21595 19.79136 19.37603 21.28682 19.80400 20.81800 
21.27500 19.75018 20.81800 21.22118 19.76200 20.81800 21.23300 19.81582 20.81800 
21.28682 19.80400 19.37603 21.27500 19.75018 19.37603 21.22118 19.76200 19.37603 
21.23300 19.81582 19.37603 21.26236 19.82105 20.09702 21.29205 19.77464 20.09702 
21.24564 19.74495 20.09702 21.21595 19.79136 20.09702 21.23300 19.81582 20.09702 
21.27500 19.75018 20.09702 21.28682 19.80400 20.09702 21.22118 19.76200 20.09702 
21.25805 20.82175 17.93410 21.21525 20.78705 17.93410 21.24995 20.74425 17.93410 
21.29275 20.77895 17.93410 21.25805 20.82175 19.37607 21.21525 20.78705 19.37607 
21.24995 20.74425 19.37607 21.29275 20.77895 19.37607 21.22946 20.81326 17.93410 
21.22374 20.75846 17.93410 21.27854 20.75274 17.93410 21.28426 20.80754 17.93410 
21.22946 20.81326 19.37607 21.22374 20.75846 19.37607 21.27854 20.75274 19.37607 
21.28426 20.80754 19.37607 21.25805 20.82175 18.65508 21.21525 20.78705 18.65508 
21.24995 20.74425 18.65508 21.29275 20.77895 18.65508 21.28426 20.80754 18.65508 
21.22374 20.75846 18.65508 21.22946 20.81326 18.65508 21.27854 20.75274 18.65508 
21.26479 20.82044 16.37600 21.21656 20.79379 16.37600 21.24321 20.74556 16.37600 
21.29144 20.77221 16.37600 21.26479 20.82044 17.81797 21.21656 20.79379 17.81797 
21.24321 20.74556 17.81797 21.29144 20.77221 17.81797 21.23516 20.81710 16.37600 
21.21990 20.76416 16.37600 21.27284 20.74890 16.37600 21.28810 20.80184 16.37600 
21.23516 20.81710 17.81797 21.21990 20.76416 17.81797 21.27284 20.74890 17.81797 
21.28810 20.80184 17.81797 21.26479 20.82044 17.09698 21.21656 20.79379 17.09698 
21.24321 20.74556 17.09698 21.29144 20.77221 17.09698 21.28810 20.80184 17.09698 
21.21990 20.76416 17.09698 21.23516 20.81710 17.09698 21.27284 20.74890 17.09698 
CELLS  3   75
24 0 1 2 3 4 5 6 7 8 9 10 11 12 13 14 15 16 17 18 19 20 21 22 23
24 24 25 26 27 28 29 30 31 32 33 34 35 36 37 38 39 40 41 42 43 44 45 46 47
24 48 49 50 51 52 53 54 55 56 57 58 59 60 61 62 63 64 65 66 67 68 69 70 71
CELL_TYPES  3 
33
33
33
CELL_DATA  3 
SCALARS node_id int 1 
LOOKUP_TABLE default
1
2
3
SCALARS average_vol_activity_bq_m3 double 1 
LOOKUP_TABLE default
2.86611e+01
3.53196e+01
0.00000e+00
SCALARS total_activity_bq double 1 
LOOKUP_TABLE default
1.97077e-01
2.42862e-01
0.00000e+00
SCALARS mc_error double 1 
LOOKUP_TABLE default
0.00000
0.00000
0.00000
