# vtk DataFile Version 2.0
DGS printing
ASCII
DATASET UNSTRUCTURED_GRID
POINTS  72  floats
21.27381 19.81655 20.81800 21.28755 19.76319 20.81800 21.23419 19.74945 20.81800 
21.22045 19.80281 20.81800 21.27381 19.81655 19.37603 21.28755 19.76319 19.37603 
21.23419 19.74945 19.37603 21.22045 19.80281 19.37603 21.29173 19.79271 20.81800 
21.26371 19.74527 20.81800 21.21627 19.77329 20.81800 21.24429 19.82073 20.81800 
21.29173 19.79271 19.37603 21.26371 19.74527 19.37603 21.21627 19.77329 19.37603 
21.24429 19.82073 19.37603 21.27381 19.81655 20.09702 21.28755 19.76319 20.09702 
21.23419 19.74945 20.09702 21.22045 19.80281 20.09702 21.24429 19.82073 20.09702 
21.26371 19.74527 20.09702 21.29173 19.79271 20.09702 21.21627 19.77329 20.09702 
21.29279 20.78663 17.93410 21.25037 20.82179 17.93410 21.21521 20.77937 17.93410 
21.25763 20.74421 17.93410 21.29279 20.78663 19.37607 21.25037 20.82179 19.37607 
21.21521 20.77937 19.37607 21.25763 20.74421 19.37607 21.27886 20.81300 17.93410 
21.22400 20.80786 17.93410 21.22914 20.75300 17.93410 21.28400 20.75814 17.93410 
21.27886 20.81300 19.37607 21.22400 20.80786 19.37607 21.22914 20.75300 19.37607 
21.28400 20.75814 19.37607 21.29279 20.78663 18.65508 21.25037 20.82179 18.65508 
21.21521 20.77937 18.65508 21.25763 20.74421 18.65508 21.28400 20.75814 18.65508 
21.22400 20.80786 18.65508 21.27886 20.81300 18.65508 21.22914 20.75300 18.65508 
21.28145 20.81064 16.37600 21.22636 20.81045 16.37600 21.22655 20.75536 16.37600 
21.28164 20.75555 16.37600 21.28145 20.81064 17.81797 21.22636 20.81045 17.81797 
21.22655 20.75536 17.81797 21.28164 20.75555 17.81797 21.25386 20.82196 16.37600 
21.21504 20.78286 16.37600 21.25414 20.74404 16.37600 21.29296 20.78314 16.37600 
21.25386 20.82196 17.81797 21.21504 20.78286 17.81797 21.25414 20.74404 17.81797 
21.29296 20.78314 17.81797 21.28145 20.81064 17.09698 21.22636 20.81045 17.09698 
21.22655 20.75536 17.09698 21.28164 20.75555 17.09698 21.29296 20.78314 17.09698 
21.21504 20.78286 17.09698 21.25386 20.82196 17.09698 21.25414 20.74404 17.09698 
CELLS  3   75
24 0 1 2 3 4 5 6 7 8 9 10 11 12 13 14 15 16 17 18 19 20 21 22 23
24 24 25 26 27 28 29 30 31 32 33 34 35 36 37 38 39 40 41 42 43 44 45 46 47
24 48 49 50 51 52 53 54 55 56 57 58 59 60 61 62 63 64 65 66 67 68 69 70 71
CELL_TYPES  3 
33
33
33
CELL_DATA  3 
SCALARS average_vol_activity_bq_m3 double 1 
LOOKUP_TABLE default
28.66108
35.31962
0.00000
SCALARS total_activity_bq double 1 
LOOKUP_TABLE default
0.19708
0.24286
0.00000
SCALARS mc_error double 1 
LOOKUP_TABLE default
0.00000
0.00000
0.00000
