# vtk DataFile Version 2.0
DGS printing
ASCII
DATASET UNSTRUCTURED_GRID
POINTS  72  floats
21.27228 19.81740 20.81800 21.28840 19.76472 20.81800 21.23572 19.74860 20.81800 
21.21960 19.80128 20.81800 21.27228 19.81740 19.37603 21.28840 19.76472 19.37603 
21.23572 19.74860 19.37603 21.21960 19.80128 19.37603 21.29126 19.79440 20.81800 
21.26540 19.74574 20.81800 21.21674 19.77160 20.81800 21.24260 19.82026 20.81800 
21.29126 19.79440 19.37603 21.26540 19.74574 19.37603 21.21674 19.77160 19.37603 
21.24260 19.82026 19.37603 21.27228 19.81740 20.09702 21.28840 19.76472 20.09702 
21.23572 19.74860 20.09702 21.21960 19.80128 20.09702 21.24260 19.82026 20.09702 
21.26540 19.74574 20.09702 21.29126 19.79440 20.09702 21.21674 19.77160 20.09702 
21.29296 20.78348 17.93410 21.25352 20.82196 17.93410 21.21504 20.78252 17.93410 
21.25448 20.74404 17.93410 21.29296 20.78348 19.37607 21.25352 20.82196 19.37607 
21.21504 20.78252 19.37607 21.25448 20.74404 19.37607 21.28120 20.81089 17.93410 
21.22611 20.81020 17.93410 21.22680 20.75511 17.93410 21.28189 20.75580 17.93410 
21.28120 20.81089 19.37607 21.22611 20.81020 19.37607 21.22680 20.75511 19.37607 
21.28189 20.75580 19.37607 21.29296 20.78348 18.65508 21.25352 20.82196 18.65508 
21.21504 20.78252 18.65508 21.25448 20.74404 18.65508 21.28189 20.75580 18.65508 
21.22611 20.81020 18.65508 21.28120 20.81089 18.65508 21.22680 20.75511 18.65508 
21.25523 20.82194 16.37600 21.21506 20.78423 16.37600 21.25277 20.74406 16.37600 
21.29294 20.78177 16.37600 21.25523 20.82194 17.81797 21.21506 20.78423 17.81797 
21.25277 20.74406 17.81797 21.29294 20.78177 17.81797 21.22733 20.81141 16.37600 
21.22559 20.75633 16.37600 21.28067 20.75459 16.37600 21.28241 20.80967 16.37600 
21.22733 20.81141 17.81797 21.22559 20.75633 17.81797 21.28067 20.75459 17.81797 
21.28241 20.80967 17.81797 21.25523 20.82194 17.09698 21.21506 20.78423 17.09698 
21.25277 20.74406 17.09698 21.29294 20.78177 17.09698 21.28241 20.80967 17.09698 
21.22559 20.75633 17.09698 21.22733 20.81141 17.09698 21.28067 20.75459 17.09698 
CELLS  3   75
24 0 1 2 3 4 5 6 7 8 9 10 11 12 13 14 15 16 17 18 19 20 21 22 23
24 24 25 26 27 28 29 30 31 32 33 34 35 36 37 38 39 40 41 42 43 44 45 46 47
24 48 49 50 51 52 53 54 55 56 57 58 59 60 61 62 63 64 65 66 67 68 69 70 71
CELL_TYPES  3 
33
33
33
CELL_DATA  3 
SCALARS node_id int 1 
LOOKUP_TABLE default
1
2
3
SCALARS average_vol_activity_bq_m3 double 1 
LOOKUP_TABLE default
8.72167e+01
9.02577e+01
8.31003e+01
SCALARS total_activity_bq double 1 
LOOKUP_TABLE default
5.99713e-01
6.20624e-01
5.71409e-01
SCALARS mc_error double 1 
LOOKUP_TABLE default
0.00000
0.00000
0.00132
