# vtk DataFile Version 2.0
DGS printing
ASCII
DATASET UNSTRUCTURED_GRID
POINTS  72  floats
21.28212 19.80997 20.81800 21.28097 19.75488 20.81800 21.22588 19.75603 20.81800 
21.22703 19.81112 20.81800 21.28212 19.80997 19.37603 21.28097 19.75488 19.37603 
21.22588 19.75603 19.37603 21.22703 19.81112 19.37603 21.29295 19.78219 20.81800 
21.25319 19.74405 20.81800 21.21505 19.78381 20.81800 21.25481 19.82195 20.81800 
21.29295 19.78219 19.37603 21.25319 19.74405 19.37603 21.21505 19.78381 19.37603 
21.25481 19.82195 19.37603 21.28212 19.80997 20.09702 21.28097 19.75488 20.09702 
21.22588 19.75603 20.09702 21.22703 19.81112 20.09702 21.25481 19.82195 20.09702 
21.25319 19.74405 20.09702 21.29295 19.78219 20.09702 21.21505 19.78381 20.09702 
21.25947 20.82157 17.93410 21.21543 20.78847 17.93410 21.24853 20.74443 17.93410 
21.29257 20.77753 17.93410 21.25947 20.82157 19.37607 21.21543 20.78847 19.37607 
21.24853 20.74443 19.37607 21.29257 20.77753 19.37607 21.23059 20.81414 17.93410 
21.22286 20.75959 17.93410 21.27741 20.75186 17.93410 21.28514 20.80641 17.93410 
21.23059 20.81414 19.37607 21.22286 20.75959 19.37607 21.27741 20.75186 19.37607 
21.28514 20.80641 19.37607 21.25947 20.82157 18.65508 21.21543 20.78847 18.65508 
21.24853 20.74443 18.65508 21.29257 20.77753 18.65508 21.28514 20.80641 18.65508 
21.22286 20.75959 18.65508 21.23059 20.81414 18.65508 21.27741 20.75186 18.65508 
21.29256 20.78860 16.37600 21.24840 20.82156 16.37600 21.21544 20.77740 16.37600 
21.25960 20.74444 16.37600 21.29256 20.78860 17.81797 21.24840 20.82156 17.81797 
21.21544 20.77740 17.81797 21.25960 20.74444 17.81797 21.27730 20.81422 16.37600 
21.22278 20.80630 16.37600 21.23070 20.75178 16.37600 21.28522 20.75970 16.37600 
21.27730 20.81422 17.81797 21.22278 20.80630 17.81797 21.23070 20.75178 17.81797 
21.28522 20.75970 17.81797 21.29256 20.78860 17.09698 21.24840 20.82156 17.09698 
21.21544 20.77740 17.09698 21.25960 20.74444 17.09698 21.28522 20.75970 17.09698 
21.22278 20.80630 17.09698 21.27730 20.81422 17.09698 21.23070 20.75178 17.09698 
CELLS  3   75
24 0 1 2 3 4 5 6 7 8 9 10 11 12 13 14 15 16 17 18 19 20 21 22 23
24 24 25 26 27 28 29 30 31 32 33 34 35 36 37 38 39 40 41 42 43 44 45 46 47
24 48 49 50 51 52 53 54 55 56 57 58 59 60 61 62 63 64 65 66 67 68 69 70 71
CELL_TYPES  3 
33
33
33
CELL_DATA  3 
SCALARS node_id int 1 
LOOKUP_TABLE default
1
2
3
SCALARS average_vol_activity_bq_m3 double 1 
LOOKUP_TABLE default
0.00000e+00
0.00000e+00
0.00000e+00
SCALARS total_activity_bq double 1 
LOOKUP_TABLE default
0.00000e+00
0.00000e+00
0.00000e+00
SCALARS mc_error double 1 
LOOKUP_TABLE default
0.00000
0.00000
0.00000
