# vtk DataFile Version 2.0
DGS printing
ASCII
DATASET UNSTRUCTURED_GRID
POINTS  72  floats
21.29290 19.78517 20.81800 21.25617 19.74410 20.81800 21.21510 19.78083 20.81800 
21.25183 19.82190 20.81800 21.29290 19.78517 19.37603 21.25617 19.74410 19.37603 
21.21510 19.78083 19.37603 21.25183 19.82190 19.37603 21.28304 19.75703 20.81800 
21.22803 19.75396 20.81800 21.22496 19.80897 20.81800 21.27997 19.81204 20.81800 
21.28304 19.75703 19.37603 21.22803 19.75396 19.37603 21.22496 19.80897 19.37603 
21.27997 19.81204 19.37603 21.29290 19.78517 20.09702 21.25617 19.74410 20.09702 
21.21510 19.78083 20.09702 21.25183 19.82190 20.09702 21.27997 19.81204 20.09702 
21.22803 19.75396 20.09702 21.28304 19.75703 20.09702 21.22496 19.80897 20.09702 
21.26836 20.81922 17.93410 21.21778 20.79736 17.93410 21.23964 20.74678 17.93410 
21.29022 20.76864 17.93410 21.26836 20.81922 19.37607 21.21778 20.79736 19.37607 
21.23964 20.74678 19.37607 21.29022 20.76864 19.37607 21.23854 20.81876 17.93410 
21.21824 20.76754 17.93410 21.26946 20.74724 17.93410 21.28976 20.79846 17.93410 
21.23854 20.81876 19.37607 21.21824 20.76754 19.37607 21.26946 20.74724 19.37607 
21.28976 20.79846 19.37607 21.26836 20.81922 18.65508 21.21778 20.79736 18.65508 
21.23964 20.74678 18.65508 21.29022 20.76864 18.65508 21.28976 20.79846 18.65508 
21.21824 20.76754 18.65508 21.23854 20.81876 18.65508 21.26946 20.74724 18.65508 
21.29145 20.79372 16.37600 21.24328 20.82045 16.37600 21.21655 20.77228 16.37600 
21.26472 20.74555 16.37600 21.29145 20.79372 17.81797 21.24328 20.82045 17.81797 
21.21655 20.77228 17.81797 21.26472 20.74555 17.81797 21.27290 20.81707 16.37600 
21.21993 20.80190 16.37600 21.23510 20.74893 16.37600 21.28807 20.76410 16.37600 
21.27290 20.81707 17.81797 21.21993 20.80190 17.81797 21.23510 20.74893 17.81797 
21.28807 20.76410 17.81797 21.29145 20.79372 17.09698 21.24328 20.82045 17.09698 
21.21655 20.77228 17.09698 21.26472 20.74555 17.09698 21.28807 20.76410 17.09698 
21.21993 20.80190 17.09698 21.27290 20.81707 17.09698 21.23510 20.74893 17.09698 
CELLS  3   75
24 0 1 2 3 4 5 6 7 8 9 10 11 12 13 14 15 16 17 18 19 20 21 22 23
24 24 25 26 27 28 29 30 31 32 33 34 35 36 37 38 39 40 41 42 43 44 45 46 47
24 48 49 50 51 52 53 54 55 56 57 58 59 60 61 62 63 64 65 66 67 68 69 70 71
CELL_TYPES  3 
33
33
33
CELL_DATA  3 
SCALARS node_id int 1 
LOOKUP_TABLE default
1
2
3
SCALARS average_vol_activity_bq_m3 double 1 
LOOKUP_TABLE default
8.72167e+01
9.02577e+01
8.29126e+01
SCALARS total_activity_bq double 1 
LOOKUP_TABLE default
5.99713e-01
6.20624e-01
5.70118e-01
SCALARS mc_error double 1 
LOOKUP_TABLE default
0.00000
0.00000
0.00000
