# vtk DataFile Version 2.0
DGS printing
ASCII
DATASET UNSTRUCTURED_GRID
POINTS  72  floats
21.27422 19.81630 20.81800 21.28730 19.76278 20.81800 21.23378 19.74970 20.81800 
21.22070 19.80322 20.81800 21.27422 19.81630 19.37603 21.28730 19.76278 19.37603 
21.23378 19.74970 19.37603 21.22070 19.80322 19.37603 21.29184 19.79226 20.81800 
21.26326 19.74516 20.81800 21.21616 19.77374 20.81800 21.24474 19.82084 20.81800 
21.29184 19.79226 19.37603 21.26326 19.74516 19.37603 21.21616 19.77374 19.37603 
21.24474 19.82084 19.37603 21.27422 19.81630 20.09702 21.28730 19.76278 20.09702 
21.23378 19.74970 20.09702 21.22070 19.80322 20.09702 21.24474 19.82084 20.09702 
21.26326 19.74516 20.09702 21.29184 19.79226 20.09702 21.21616 19.77374 20.09702 
21.28857 20.80096 17.93410 21.23604 20.81757 17.93410 21.21943 20.76504 17.93410 
21.27196 20.74843 17.93410 21.28857 20.80096 19.37607 21.23604 20.81757 19.37607 
21.21943 20.76504 19.37607 21.27196 20.74843 19.37607 21.26575 20.82015 17.93410 
21.21685 20.79475 17.93410 21.24225 20.74585 17.93410 21.29115 20.77125 17.93410 
21.26575 20.82015 19.37607 21.21685 20.79475 19.37607 21.24225 20.74585 19.37607 
21.29115 20.77125 19.37607 21.28857 20.80096 18.65508 21.23604 20.81757 18.65508 
21.21943 20.76504 18.65508 21.27196 20.74843 18.65508 21.29115 20.77125 18.65508 
21.21685 20.79475 18.65508 21.26575 20.82015 18.65508 21.24225 20.74585 18.65508 
21.28673 20.80414 16.37600 21.23286 20.81573 16.37600 21.22127 20.76186 16.37600 
21.27514 20.75027 16.37600 21.28673 20.80414 17.81797 21.23286 20.81573 17.81797 
21.22127 20.76186 17.81797 21.27514 20.75027 17.81797 21.26219 20.82109 16.37600 
21.21591 20.79119 16.37600 21.24581 20.74491 16.37600 21.29209 20.77481 16.37600 
21.26219 20.82109 17.81797 21.21591 20.79119 17.81797 21.24581 20.74491 17.81797 
21.29209 20.77481 17.81797 21.28673 20.80414 17.09698 21.23286 20.81573 17.09698 
21.22127 20.76186 17.09698 21.27514 20.75027 17.09698 21.29209 20.77481 17.09698 
21.21591 20.79119 17.09698 21.26219 20.82109 17.09698 21.24581 20.74491 17.09698 
CELLS  3   75
24 0 1 2 3 4 5 6 7 8 9 10 11 12 13 14 15 16 17 18 19 20 21 22 23
24 24 25 26 27 28 29 30 31 32 33 34 35 36 37 38 39 40 41 42 43 44 45 46 47
24 48 49 50 51 52 53 54 55 56 57 58 59 60 61 62 63 64 65 66 67 68 69 70 71
CELL_TYPES  3 
33
33
33
CELL_DATA  3 
SCALARS average_vol_activity_bq_m3 double 1 
LOOKUP_TABLE default
87.21667
90.25774
82.88880
SCALARS total_activity_bq double 1 
LOOKUP_TABLE default
0.59971
0.62062
0.56995
SCALARS mc_error double 1 
LOOKUP_TABLE default
0.00000
0.00000
0.00137
