# vtk DataFile Version 2.0
DGS printing
ASCII
DATASET UNSTRUCTURED_GRID
POINTS  48  floats
21.26601 23.82006 19.37600 21.21694 23.79501 19.37600 21.24199 23.74594 19.37600 
21.29106 23.77099 19.37600 21.26601 23.82006 22.31797 21.21694 23.79501 22.31797 
21.24199 23.74594 22.31797 21.29106 23.77099 22.31797 21.23629 23.81770 19.37600 
21.21930 23.76529 19.37600 21.27171 23.74830 19.37600 21.28870 23.80071 19.37600 
21.23629 23.81770 22.31797 21.21930 23.76529 22.31797 21.27171 23.74830 22.31797 
21.28870 23.80071 22.31797 21.26601 23.82006 20.84698 21.21694 23.79501 20.84698 
21.24199 23.74594 20.84698 21.29106 23.77099 20.84698 21.28870 23.80071 20.84698 
21.21930 23.76529 20.84698 21.23629 23.81770 20.84698 21.27171 23.74830 20.84698 
21.29290 23.28517 17.87600 21.25183 23.32190 17.87600 21.21510 23.28083 17.87600 
21.25617 23.24410 17.87600 21.29290 23.28517 19.31797 21.25183 23.32190 19.31797 
21.21510 23.28083 19.31797 21.25617 23.24410 19.31797 21.27997 23.31204 17.87600 
21.22496 23.30897 17.87600 21.22803 23.25396 17.87600 21.28304 23.25703 17.87600 
21.27997 23.31204 19.31797 21.22496 23.30897 19.31797 21.22803 23.25396 19.31797 
21.28304 23.25703 19.31797 21.29290 23.28517 18.59698 21.25183 23.32190 18.59698 
21.21510 23.28083 18.59698 21.25617 23.24410 18.59698 21.28304 23.25703 18.59698 
21.22496 23.30897 18.59698 21.27997 23.31204 18.59698 21.22803 23.25396 18.59698 
CELLS  2   50
24 0 1 2 3 4 5 6 7 8 9 10 11 12 13 14 15 16 17 18 19 20 21 22 23
24 24 25 26 27 28 29 30 31 32 33 34 35 36 37 38 39 40 41 42 43 44 45 46 47
CELL_TYPES  2 
33
33
CELL_DATA  2 
SCALARS average_vol_activity_bq_m3 double 1 
LOOKUP_TABLE default
43.18204
0.00000
SCALARS total_activity_bq double 1 
LOOKUP_TABLE default
0.60580
0.00000
SCALARS mc_error double 1 
LOOKUP_TABLE default
0.00000
0.00000
