/*--------------------------------*- C++ -*----------------------------------*\
  =========                 |
  \\      /  F ield         | OpenFOAM: The Open Source CFD Toolbox
   \\    /   O peration     | Website:  https://openfoam.org
    \\  /    A nd           | Version:  10
     \\/     M anipulation  |
\*---------------------------------------------------------------------------*/
FoamFile
{
    format      ascii;
    class       volScalarField;
    location    "27";
    object      nut;
}
// * * * * * * * * * * * * * * * * * * * * * * * * * * * * * * * * * * * * * //

dimensions      [0 2 -1 0 0 0 0];

internalField   nonuniform List<scalar> 
204806
(
6.20664e-06
2.84078e-05
2.10621e-05
9.4274e-05
9.59956e-06
1.30841e-05
0.000176321
1.04402e-05
1.15433e-05
1.13355e-05
8.4364e-05
1.90276e-05
1.03391e-05
1.99966e-05
0.000606175
6.05581e-05
2.01906e-05
2.35641e-05
1.09205e-05
1.42474e-05
1.15425e-05
1.30822e-05
9.38597e-06
2.88288e-05
6.94656e-05
5.16858e-05
2.25211e-05
1.05697e-05
0.000348367
0.00019735
7.39638e-05
2.65215e-05
1.89569e-05
3.50943e-05
5.21846e-05
4.26989e-05
1.08839e-05
1.55078e-05
1.71527e-05
0.00013608
1.73077e-05
4.52238e-05
4.24e-06
3.59876e-05
0.00036866
4.56295e-05
4.68127e-05
1.15898e-08
5.55145e-05
4.32756e-05
2.78859e-05
0.000270086
4.94424e-05
0.000918169
3.48592e-05
1.7666e-05
2.03221e-07
0.000155105
6.07416e-05
0.000517915
0.00090352
8.38049e-05
2.64693e-05
0.0005052
4.4269e-05
3.49671e-06
2.98238e-05
2.93541e-05
9.7075e-06
1.46175e-05
9.53924e-06
7.54783e-05
3.23721e-05
5.37494e-05
7.30615e-06
6.48216e-05
2.45469e-06
0.00026881
1.02284e-05
0.0003032
3.76421e-05
2.84043e-05
2.28612e-05
3.42809e-06
0.000134527
8.91678e-05
9.3014e-06
0.000108654
2.74883e-06
4.39015e-05
4.08257e-05
0.000102546
8.96e-05
2.97896e-05
4.83436e-05
0.000105274
7.21338e-05
9.61742e-06
8.33006e-06
1.90778e-05
3.887e-05
1.52084e-05
1.78504e-05
0.000134334
0.000237792
4.1603e-06
5.41835e-05
7.48111e-05
1.62164e-05
6.26171e-05
7.23028e-05
2.35145e-05
6.83318e-05
2.22283e-05
1.26163e-05
1.82865e-05
0.000508527
7.78746e-05
0.000654012
1.87974e-05
1.78587e-05
6.185e-05
9.45418e-06
7.9704e-05
5.54526e-05
7.74318e-05
8.06892e-05
0.00043692
1.01168e-05
2.66254e-05
3.72388e-05
0.000123476
3.08688e-05
2.60289e-05
1.08209e-05
9.20012e-06
0.000467186
0.000906556
5.41579e-05
0.000970147
0.000569162
4.09099e-05
0.0001181
9.6879e-05
2.70229e-06
0.000634872
0.00112367
2.6996e-05
2.58783e-05
1.90163e-05
1.78708e-05
9.42759e-05
0.000229123
7.4474e-05
0.00026083
4.01268e-06
7.68565e-06
0.000499344
1.57349e-06
5.3997e-05
1.55412e-05
8.64257e-06
1.88684e-05
5.20531e-05
5.62377e-05
2.882e-05
1.60842e-05
2.98975e-05
0.000112
7.26163e-05
4.2592e-05
4.41767e-05
0.000150995
0.00044884
0.000139389
4.28487e-05
1.77991e-05
5.93718e-05
2.28226e-05
1.91724e-05
3.54979e-05
7.20148e-05
1.05672e-05
9.49234e-06
2.46723e-05
6.64698e-05
0.000645446
4.05801e-05
6.16783e-05
9.31071e-06
2.4806e-05
3.99411e-05
6.51999e-05
0.000112038
1.92636e-05
2.36113e-05
6.71888e-05
3.78536e-05
3.35972e-05
1.91726e-05
9.49424e-05
9.25882e-05
3.34154e-06
0.000363721
1.82917e-05
4.81138e-05
0.000105861
3.49886e-06
0.000114952
4.94544e-05
7.31916e-05
0.000394982
3.75359e-05
1.27556e-05
0.000441634
5.45343e-05
1.19544e-05
4.683e-05
2.74006e-05
2.08768e-05
5.35258e-05
0.00014344
0.000286085
1.20064e-05
0.000299817
0.000210503
7.45875e-05
1.62097e-05
3.2692e-05
3.532e-05
4.36971e-05
1.82395e-05
4.42573e-05
5.56299e-05
5.00619e-05
5.02836e-05
1.1893e-05
4.25154e-05
1.7835e-05
4.74365e-05
3.96359e-06
0.000280203
9.77861e-06
1.55351e-06
6.5524e-05
0.00113611
2.00127e-05
1.02552e-09
4.78658e-05
2.14386e-05
4.27021e-05
1.69334e-05
0.000118348
3.45849e-06
9.19827e-06
4.7362e-05
4.6383e-06
6.01691e-06
2.57508e-05
0.000140715
0.000881277
0.000177583
0.000358468
1.90818e-05
4.48866e-05
0.000686263
0.000433683
5.45272e-05
0.000237053
4.07636e-05
4.80623e-05
1.39975e-05
7.45311e-05
7.07993e-05
5.73071e-06
0.000167028
0.000401719
7.7438e-05
1.17632e-05
0.000996473
5.89603e-06
1.84718e-05
3.82212e-05
9.94489e-06
1.43477e-05
7.06037e-06
4.72845e-05
4.55234e-05
0.000359754
9.82814e-06
6.70505e-05
8.49422e-05
1.83061e-05
4.94128e-05
0.00084775
1.35113e-05
5.55264e-06
0.00080019
0.00073139
0.000661681
5.12484e-05
2.4651e-05
2.24927e-05
5.52759e-05
4.89224e-05
0.000564842
1.224e-05
4.15707e-05
1.91467e-05
6.57368e-05
0.000964068
2.98596e-05
7.87348e-05
3.80902e-05
0.000818168
5.14542e-06
6.15009e-05
0.000101742
5.97058e-05
0.000312226
7.85297e-05
8.97428e-06
3.42588e-05
2.02013e-05
1.00611e-05
5.96169e-06
6.1076e-05
1.86295e-05
0.00088566
0.000298107
4.3738e-05
3.87786e-05
8.61291e-05
0.000362554
0.00016415
7.10565e-05
9.94642e-06
4.05601e-05
0.000190383
1.96147e-05
0.000107546
0.000490369
4.12544e-06
7.71211e-05
1.58907e-06
5.50523e-06
0.000161312
9.83023e-06
0.000145907
1.41709e-05
0.000101578
0.00053397
2.43646e-05
2.26564e-05
3.14989e-05
0.000235955
4.76445e-05
7.24507e-05
6.2684e-05
2.86138e-05
3.29886e-05
2.03818e-05
4.52859e-05
5.18621e-05
0.000183455
0.000136293
1.242e-05
4.57353e-05
3.92793e-05
6.55987e-05
4.87324e-05
0.000314588
7.86598e-05
3.69947e-05
3.28957e-05
8.15521e-05
0.000234702
0.000417556
1.58629e-05
0.000479088
4.19268e-05
0.00086335
0.00015141
3.89815e-05
0.000216686
0.000953883
0.00010997
5.28054e-11
3.52373e-05
0.00126692
0.000121783
0.000116173
1.30217e-05
2.24167e-05
0.000115795
0.000114084
0.000376352
9.18231e-06
1.58065e-05
5.51491e-06
0.000842222
1.22839e-05
5.41115e-05
7.77846e-05
0.000232411
0.00118701
0.000317702
3.25081e-06
7.72841e-06
2.21351e-05
0.000118441
8.16762e-05
4.55739e-05
1.06608e-05
1.21409e-05
0.00123381
7.805e-05
1.74636e-05
0.000100678
0.00100359
5.25599e-05
5.3446e-06
8.1689e-06
1.88051e-05
0.000239989
0.000394153
0.000126428
5.38188e-05
5.27285e-05
9.29679e-05
6.58004e-05
0.000463682
4.95157e-05
5.9248e-06
2.83078e-05
7.93415e-05
9.66704e-05
2.34734e-05
5.08047e-05
1.90293e-05
6.1651e-05
6.1299e-05
9.56201e-06
7.60403e-06
6.31926e-05
9.16804e-05
1.87857e-05
0.00014073
9.68916e-06
0.000105384
4.29908e-05
1.81129e-05
5.01153e-05
0.00017807
2.47583e-05
1.8763e-05
2.24478e-05
5.45529e-05
0.000245746
0.00069064
3.8652e-06
0.000103748
2.00278e-06
3.52754e-05
1.2149e-05
1.12389e-05
0.000964473
6.40592e-12
1.32163e-06
0.00111646
8.23347e-05
0.000117409
9.9239e-06
0.000336258
1.51529e-06
5.88948e-05
7.59404e-05
3.70808e-05
0.000130106
0.000127567
0.000630807
7.20867e-06
0.000790574
0.000103273
7.09984e-05
7.75844e-05
2.71112e-05
0.000271388
9.81428e-06
9.32388e-06
0.000111717
2.76186e-05
0.000114978
0.000647576
0.000137013
0.000380756
5.31037e-05
6.36097e-05
0.000618346
0.000270154
0.000141182
0.000436676
1.18251e-05
1.63915e-05
0.000297206
0.000210001
1.79165e-05
5.28026e-05
4.87227e-05
0.000222488
0.000570437
0.000133058
3.89478e-05
0.000345538
9.59026e-06
1.32036e-05
9.69908e-05
0.000168596
6.10637e-05
3.61624e-05
2.36615e-05
3.05958e-05
0.000191201
0.000146855
3.70576e-05
4.66667e-05
1.43266e-05
9.18333e-05
4.84411e-05
7.99723e-05
0.000132438
1.4911e-05
6.28825e-06
4.12642e-06
0.0011947
3.69666e-05
4.07267e-05
1.34282e-05
8.22065e-05
1.02168e-05
3.03152e-05
1.0018e-05
9.12316e-06
6.35875e-06
8.17315e-05
0.000110863
7.7181e-05
9.8427e-06
7.61901e-05
1.41568e-05
0.00012471
0.000765356
0.000126956
6.81475e-05
5.10108e-05
1.79991e-05
1.95635e-05
2.13021e-12
0.000955179
0.000523862
1.28854e-05
0.000603664
6.97172e-05
4.59951e-11
4.12422e-05
4.35419e-05
0.000110341
0.000125287
1.00168e-05
4.36284e-05
8.52117e-05
0.000113153
1.69237e-05
0.000249321
7.2466e-05
0.000344237
0.000124898
2.02911e-05
9.43113e-06
1.27277e-05
3.08505e-05
0.000839336
1.66678e-05
9.87341e-06
5.84014e-06
0.000293078
9.1736e-05
3.06342e-05
9.44328e-06
8.04425e-05
0.000736324
3.68591e-05
1.0947e-05
9.66166e-06
8.22991e-05
7.49748e-05
1.95828e-05
4.22984e-05
3.34287e-06
4.85726e-05
1.87021e-06
5.46767e-05
0.000191017
0.000118987
2.10797e-05
0.000658051
6.59004e-05
0.000579639
0.000627339
0.000476721
0.00115587
0.000441976
7.80164e-05
0.000815944
4.07135e-05
0.000642167
0.0001294
2.58418e-05
5.59355e-05
7.24977e-05
0.000242815
4.80453e-05
9.38272e-05
4.84815e-06
6.13307e-05
0.000253037
5.53493e-05
0.00044176
1.96738e-05
0.000896833
0.000166122
6.17195e-05
1.10413e-05
6.64461e-05
7.76508e-05
0.000306593
1.13694e-05
0.000131637
1.80185e-05
6.22897e-05
6.32565e-05
0.000589093
8.40658e-06
5.58076e-05
0.000132526
6.29548e-06
2.43718e-05
5.05963e-05
3.94113e-05
2.31655e-05
2.39834e-05
0.000102611
0.000305099
0.00011072
9.38529e-05
0.000461977
0.000680723
0.000441785
0.000884713
1.09281e-05
5.16e-05
0.00015471
0.00126784
0.000686886
0.000778691
6.74778e-05
6.2051e-05
0.000224423
1.23343e-05
0.00024094
0.000260901
4.97341e-05
0.000494531
0.000135734
3.39498e-05
1.81834e-05
9.27846e-06
9.41286e-06
7.8339e-05
0.000496205
1.86344e-05
0.000114145
3.60766e-05
5.58036e-05
0.00015229
0.00117823
3.09714e-05
0.000699466
0.000713004
3.14911e-05
8.6876e-05
2.93076e-05
4.8615e-05
9.25901e-05
0.000317825
4.77123e-05
8.10865e-05
0.000209544
5.22487e-05
1.32363e-05
2.39478e-05
3.3921e-05
4.56637e-05
5.47246e-05
0.000563699
2.52092e-05
0.000580573
0.000348038
4.61825e-05
4.65375e-09
0.000660198
0.000149181
0.000616697
0.00072204
3.76708e-05
0.000507233
0.000392759
0.000737247
0.000537426
5.12325e-05
0.000332305
5.77849e-05
0.00066826
1.13557e-05
7.80962e-05
0.00101051
6.54095e-05
1.88916e-05
8.1357e-05
2.89177e-05
1.89856e-05
0.00011407
0.000217766
9.2287e-05
2.84216e-05
0.000263926
0.000135832
0.000244097
1.27682e-05
0.000126739
1.39603e-05
1.08262e-05
0.000497786
0.00050889
6.45694e-05
8.678e-05
0.00124077
7.25739e-05
0.000380254
3.29891e-05
1.92618e-05
6.52783e-06
0.00118621
2.3222e-05
5.83938e-05
0.000547543
4.51167e-05
3.99122e-06
1.91795e-06
3.54941e-05
0.000590063
6.70647e-05
0.000533777
4.05071e-05
0.000774903
0.000831364
0.00022785
0.000101059
0.000395688
5.27339e-06
4.31923e-05
0.000473209
4.92687e-05
0.000126342
0.000508102
0.000370376
0.000602879
0.000270575
0.00085484
0.000112893
6.98503e-05
0.000260466
4.91624e-05
2.40558e-05
6.2422e-05
2.65889e-06
1.01738e-05
0.00020943
1.16512e-05
0.000229488
4.13367e-06
5.68076e-05
2.02643e-06
6.48956e-06
5.83015e-05
4.89349e-05
2.13213e-05
0.000813419
9.57464e-06
0.000154789
9.00599e-05
5.49035e-06
2.34647e-05
0.000828207
3.97936e-05
5.44081e-05
0.000299524
6.13972e-05
9.35634e-05
3.05106e-05
4.45826e-05
6.06969e-05
0.00081254
2.39147e-05
7.81474e-05
4.51189e-05
0.000784073
8.00349e-05
3.10071e-05
1.54211e-05
1.96098e-05
0.00021603
0.000899712
7.49566e-05
5.21604e-05
0.000113163
0.000134565
0.000147218
0.000428774
0.000131772
5.49909e-05
3.34814e-05
9.70072e-06
5.92547e-05
9.50609e-05
1.07105e-05
0.000728032
0.000334192
0.00037825
0.000951173
5.29142e-05
2.03267e-05
9.80517e-05
7.58949e-06
4.51986e-05
0.00023513
7.7292e-05
4.31104e-05
3.76402e-05
2.25578e-07
1.67518e-05
0.000572704
4.345e-05
9.66925e-06
2.9683e-05
3.24473e-05
6.17826e-05
0.00026022
0.00127781
0.0010449
2.2906e-05
5.57003e-05
0.000534853
1.17606e-05
0.00110454
2.59741e-05
0.00118488
0.000758501
0.000405587
7.18956e-05
5.02445e-11
5.65745e-05
1.83146e-05
5.81947e-05
0.000154627
0.000102252
2.51504e-07
0.00024353
9.19256e-05
3.81647e-05
0.000162336
0.00115424
0.000520165
0.000597886
0.000430024
1.07736e-05
3.47164e-05
0.000636607
3.53796e-05
0.000111328
9.90005e-05
0.000782224
0.000888554
2.59262e-09
1.51289e-10
8.98555e-05
0.000134293
8.16952e-05
0.000197738
2.35811e-05
4.91307e-05
5.69778e-05
0.000115391
2.43741e-05
0.000194044
9.01532e-06
9.65165e-07
9.08194e-06
1.95326e-05
6.22066e-05
1.11842e-05
4.58605e-05
0.000126296
0.000441986
1.60284e-05
1.39937e-05
3.41704e-06
3.34865e-05
0.000136168
0.00016455
1.8812e-05
8.67792e-05
0.000551097
0.000110999
2.88242e-05
0.000123321
4.18126e-06
0.000605778
3.77686e-05
1.41498e-05
9.41694e-06
0.000245498
9.83417e-05
2.32739e-05
5.32122e-06
4.0355e-05
6.54698e-05
1.89701e-05
4.52121e-06
1.14317e-06
0.000442191
0.000764109
2.39762e-05
0.00113677
1.25888e-05
5.33825e-05
0.000133339
5.88344e-05
9.4233e-06
9.43467e-06
3.48218e-05
0.000735382
2.59733e-05
4.29776e-08
0.000541907
0.000413919
0.000442673
0.000376148
0.000167856
1.98089e-05
4.42228e-05
0.000130815
5.33017e-05
3.30967e-05
0.000116503
6.31602e-05
0.000100666
3.55987e-05
2.0446e-05
0.000132338
3.49723e-05
5.48934e-05
8.50364e-05
3.9791e-05
2.08252e-05
0.000399135
1.8548e-05
5.1343e-06
8.86997e-05
0.00115853
4.18901e-05
0.000967354
2.3415e-05
4.16853e-05
9.51109e-06
5.98023e-05
0.000119855
1.08123e-05
0.000677483
0.000433289
1.029e-05
3.09532e-05
7.00606e-05
9.72578e-06
0.00117696
9.98442e-05
0.00100846
0.000164037
5.18416e-05
8.07724e-05
9.55291e-06
0.000869345
0.00117801
0.00121825
0.000500322
0.000795425
0.00109566
0.000217561
0.000817808
0.000526639
0.000828406
0.000347785
4.43146e-05
0.000369195
0.000884234
5.46364e-05
4.86096e-05
0.000561228
0.00101941
6.97383e-05
0.000380413
5.37262e-06
6.88988e-05
2.77111e-05
0.000161937
1.75497e-05
0.0010637
0.000611175
3.97024e-05
1.12631e-05
3.54164e-05
5.06614e-05
1.84952e-05
9.54444e-06
2.27673e-05
2.00256e-05
6.96676e-05
4.58713e-05
6.77356e-05
0.00126266
6.72902e-05
3.4445e-05
5.08293e-05
0.000487005
3.31741e-05
0.000509192
4.37504e-05
0.000554584
3.37898e-05
0.000393001
3.48844e-05
0.000125047
4.9523e-05
2.92248e-05
1.14562e-05
3.46667e-06
5.17595e-05
0.000570671
3.05803e-05
0.000590572
5.9282e-05
7.45017e-07
6.24926e-05
3.30529e-05
0.000677838
0.000186721
7.32031e-05
1.07074e-05
1.51855e-05
0.000544186
0.000781379
0.000554024
0.000113065
2.67709e-05
0.000232289
0.000160185
0.000154605
7.57611e-07
7.18942e-05
0.00126409
0.000160988
0.00107324
0.000151179
7.87438e-05
0.000317896
0.00012118
0.00012228
0.000703494
0.00102199
5.20816e-05
0.000391202
6.27375e-06
0.000721803
5.30143e-05
0.000541287
0.000136358
3.84897e-05
6.07341e-05
3.54991e-05
5.54289e-05
0.000116319
2.00069e-05
5.22417e-05
5.32823e-05
0.000219924
3.36694e-05
3.89997e-05
0.00123433
0.000265412
0.000124902
0.000349789
0.0012033
4.11963e-05
5.44484e-05
9.3248e-06
4.27259e-05
9.31642e-05
6.53374e-05
0.000144124
2.76535e-05
0.000991087
0.000520815
9.5005e-05
0.000132114
0.000136381
7.84017e-05
4.11256e-05
1.11709e-05
9.62692e-06
1.76054e-05
3.73348e-05
5.83269e-05
1.82807e-05
4.28775e-05
1.38416e-05
6.94509e-05
0.00052607
2.15806e-05
0.000742316
4.32365e-06
8.52611e-07
0.000878688
1.84355e-05
6.7325e-05
0.00054677
0.000573581
0.000992221
7.97433e-05
0.00114329
1.07555e-05
6.87132e-05
0.000149635
0.000576979
0.000161832
4.21151e-05
0.000132998
0.000219107
0.00114965
2.69221e-05
0.00123246
3.6187e-05
6.04504e-05
0.000827721
0.000802894
0.000477512
0.000931427
1.03281e-05
0.000466688
0.000113545
1.06246e-05
4.90924e-05
3.93028e-05
0.00021019
0.00015434
1.29919e-05
6.28804e-05
1.78578e-05
8.55208e-05
5.15565e-05
6.95002e-05
4.59605e-05
6.8425e-05
0.000214148
3.4641e-05
0.000387474
0.000114699
4.10745e-05
0.000130592
9.57653e-06
1.3161e-05
0.00095902
4.34047e-05
9.83735e-06
1.53344e-05
7.98257e-05
2.58057e-05
5.30178e-05
5.31798e-05
4.30214e-05
1.54496e-05
1.08322e-05
2.05319e-05
0.000127019
3.86598e-05
0.000666938
5.8641e-05
1.4433e-05
2.67387e-05
0.00114466
7.6454e-05
4.83436e-05
2.54783e-05
3.86075e-05
4.63863e-05
4.82462e-05
4.67274e-05
0.000161985
4.54704e-05
0.000240013
6.18444e-05
2.81867e-05
1.03645e-05
9.07965e-06
1.48187e-05
6.83523e-05
4.8556e-05
0.000706768
2.74796e-06
7.72147e-06
5.99476e-05
0.000110825
1.99646e-05
0.000235551
0.00040006
0.000713651
0.000775093
0.000472026
0.000482429
0.000220225
6.94589e-05
0.00038133
8.98443e-05
0.000121548
0.000466022
2.87793e-05
0.000189053
4.34464e-05
9.26624e-05
0.00092837
0.000828402
0.00103721
0.000729529
2.33227e-05
0.000235679
3.45113e-05
0.00103331
0.000144472
3.83128e-05
2.73989e-05
0.000734961
2.86492e-11
0.000301178
7.82256e-05
3.61682e-05
9.40107e-05
0.000445888
0.000872773
0.000543688
2.66063e-05
0.00126325
8.70581e-05
6.95692e-05
0.000515752
1.92669e-05
7.21554e-05
2.85831e-05
5.99616e-05
0.000399457
5.21081e-05
0.000626308
0.000646764
0.000453372
3.47861e-05
5.12676e-05
1.64827e-05
3.89581e-05
4.42037e-05
0.000294935
0.000158871
0.000126061
0.000623734
0.000157841
0.000427013
0.000105967
0.000438792
4.24354e-05
6.54887e-05
1.0546e-05
0.000130349
9.57926e-06
7.54106e-05
0.000605705
6.71583e-05
5.1632e-05
5.40531e-09
0.00038945
0.00102899
3.42553e-05
5.43836e-05
4.74984e-05
2.05659e-06
3.73895e-05
1.5784e-09
3.23833e-05
7.81313e-05
0.000134476
0.00110055
1.01595e-05
5.54634e-05
3.81186e-05
1.66379e-05
4.11795e-07
6.38462e-05
0.000122432
2.4594e-05
1.04965e-05
0.000132204
1.55816e-05
7.76582e-05
1.84174e-05
1.80038e-05
0.000470212
0.000749683
2.08561e-05
1.77467e-05
4.52186e-05
9.72981e-06
9.0604e-05
1.56791e-05
9.57001e-06
0.000506287
1.99028e-05
8.00152e-06
5.85593e-05
3.35931e-06
7.20669e-05
1.93424e-05
7.52499e-06
0.000876879
0.000499435
2.46529e-05
3.48771e-05
8.17469e-05
0.000407023
5.71369e-05
0.000973275
0.000752564
0.000217899
0.00107021
0.000253432
8.6408e-06
1.08474e-05
7.74148e-05
0.000925151
0.000459319
0.00124286
0.000653525
3.41205e-05
0.000803618
0.000335503
0.000394682
4.83388e-05
0.000938028
0.00126603
8.09841e-05
0.00100105
1.16561e-05
0.000223058
8.88771e-05
3.07612e-05
0.000569911
2.28941e-05
6.22585e-05
0.00010311
9.59962e-05
0.000843232
5.46017e-05
0.00084903
0.000143872
5.3341e-05
0.000371071
0.000993318
0.000259534
0.000557684
0.00124664
4.2405e-05
2.61112e-05
0.000148841
4.32017e-05
6.27945e-06
0.000121488
8.3932e-05
9.8367e-06
0.00035102
4.90964e-05
2.20364e-05
3.41702e-05
0.000314686
0.000573048
3.70136e-05
7.72684e-05
0.000234449
0.00066203
0.000166621
0.000716243
6.22228e-05
0.000158639
8.19967e-05
8.20201e-05
7.09207e-05
1.25228e-05
1.03357e-05
7.15534e-06
0.000569931
0.000298417
1.91703e-05
0.000377173
0.00054083
0.00110714
0.000340392
0.000427546
0.000585295
0.000488003
0.000646995
0.00125881
0.00107466
6.04818e-05
1.81577e-05
0.000136638
6.34091e-05
0.000287698
0.000311894
8.28349e-05
0.000754537
0.000485928
0.000117049
4.01043e-05
0.000276604
2.25505e-05
2.56494e-05
0.000534266
6.07631e-05
0.000858311
1.52207e-05
7.00657e-05
1.009e-05
1.81582e-05
0.000242772
0.000750677
4.26673e-05
3.4218e-05
0.00021448
0.000954686
0.00017785
0.000519118
6.6862e-05
0.000398958
0.000531711
4.17797e-05
0.000367379
3.75272e-05
1.65093e-05
0.000419436
9.83897e-06
5.8219e-05
9.46573e-05
0.00125035
0.000120494
5.84454e-05
0.000815789
0.000796809
0.00024692
2.04339e-05
0.00102109
4.23518e-05
0.000371982
1.68532e-05
0.000112757
7.54892e-05
1.27188e-05
0.000300366
9.79541e-06
0.000681306
5.42725e-06
4.71587e-06
7.23976e-07
0.000990768
0.000777469
0.000178603
0.000499494
0.00124282
8.77429e-05
5.50169e-05
8.63044e-05
0.000553663
1.85044e-05
0.000681128
0.000830645
0.000122039
9.21992e-05
0.000965287
0.000387787
0.000695078
0.00115576
0.00109708
0.00017634
3.10759e-05
0.000544201
0.000179901
7.71719e-05
0.000386678
0.000421744
6.86947e-05
9.86218e-05
3.40636e-05
0.000553696
1.10996e-05
8.86226e-06
0.000505611
1.06728e-05
2.96948e-05
1.2334e-05
0.00104846
0.00109249
0.000611902
0.000829496
0.000431985
0.00077169
0.00038698
0.000127717
0.000228859
0.000273169
8.63666e-06
2.7162e-05
0.000296242
4.22675e-05
2.2991e-05
7.3077e-05
0.000353949
3.84484e-05
0.000304803
4.2538e-05
0.000387927
9.37029e-06
1.57452e-05
3.83752e-05
0.000518024
1.24643e-05
0.000461787
0.000467982
0.000579755
0.000839543
0.00124212
6.19839e-05
1.11903e-05
9.05625e-06
0.000261495
0.000296969
0.000175524
0.000120413
0.000623727
0.000353264
0.000138949
9.22778e-05
1.80458e-05
3.51351e-05
5.80352e-05
3.99863e-05
0.000449386
9.38166e-06
0.00113198
0.000538366
0.000444777
8.79924e-06
0.000106809
0.000251071
0.000107323
0.000407016
0.00126075
6.5453e-07
9.02287e-06
0.00026308
0.000608542
3.97029e-05
0.000728541
3.97481e-05
0.000484909
0.000454082
0.000534921
0.000120037
0.000111242
9.15246e-06
1.26097e-05
3.31601e-05
6.71999e-05
0.000125196
2.83577e-05
0.000294301
2.56732e-05
0.000217435
0.000225287
1.04767e-09
1.93882e-05
0.000506381
5.70344e-05
7.36804e-05
8.3089e-05
8.29479e-06
1.45024e-05
7.13373e-05
9.67442e-06
1.10613e-05
0.000112253
7.08318e-05
3.91308e-05
6.96868e-05
0.000539387
3.96327e-05
0.000575816
1.22092e-05
1.85954e-05
3.55529e-05
0.000119148
0.000853261
3.84136e-05
3.24943e-05
4.32296e-05
0.000492654
1.09398e-05
0.000560213
0.000302902
1.02767e-05
6.79487e-05
0.000455342
0.000372805
0.000175659
0.000422895
3.26565e-05
0.00122618
0.00024945
6.77829e-05
1.81238e-05
0.00049158
0.000233778
0.000310045
4.14397e-05
8.40296e-05
0.00060907
0.000944043
0.000464062
5.18029e-05
0.0005961
0.000483649
0.000112212
0.000389016
0.00029837
0.000435525
0.000356316
2.94025e-05
0.000333922
9.30277e-05
5.83701e-05
0.000621972
0.000278064
0.00105185
8.23585e-05
7.59515e-05
0.000270293
0.000414953
1.37362e-07
3.11538e-05
1.78074e-05
2.56424e-05
0.000585209
0.000864589
0.000626351
0.000355834
8.68239e-05
0.0009816
9.88885e-05
0.000435229
0.00011356
3.32213e-05
5.82395e-05
0.000512133
2.76326e-05
1.0229e-05
0.000539494
0.00126731
4.24856e-05
3.68949e-05
0.00037769
0.000364952
0.000180626
0.00015153
1.57604e-05
5.17326e-05
7.43463e-05
8.88124e-05
0.000105148
0.000112204
0.00057507
3.80692e-05
0.00106904
0.000351112
1.80573e-05
0.000651397
0.000126254
0.000461521
6.73739e-05
0.000299316
0.000602493
0.000444381
0.000368021
0.000207325
0.000453345
6.47708e-05
0.000282408
0.0005217
0.000636549
0.000436675
0.000141194
2.2692e-05
7.37145e-05
4.12697e-05
3.56487e-05
0.000132511
5.21993e-05
2.64357e-05
4.92121e-05
5.99075e-05
0.000396009
0.00011475
8.15499e-05
1.39676e-05
1.41803e-05
1.19553e-05
0.000128987
0.000106863
0.00115109
3.83831e-05
7.39874e-05
1.58451e-08
0.00018388
3.99843e-05
0.000385651
0.000464737
7.26229e-06
0.000227262
0.000131446
0.000260508
0.000345272
5.38318e-05
7.91238e-06
0.000122503
1.69463e-05
1.01735e-05
3.24712e-05
3.12412e-05
1.93379e-05
0.00121064
0.000126402
1.76327e-05
0.000533216
2.83302e-05
1.0458e-05
6.47556e-06
2.1933e-05
0.000134013
3.32916e-05
6.59475e-06
1.39591e-05
0.00111361
9.09507e-05
0.000407005
4.59386e-05
4.73572e-05
9.04987e-05
7.83363e-05
2.0847e-05
1.85487e-05
4.01863e-05
0.000203937
5.86111e-05
6.75167e-05
7.52348e-05
6.31915e-05
4.16277e-05
1.97685e-05
0.000381142
2.56372e-05
5.39749e-05
4.74913e-05
0.000221044
2.40697e-05
6.17386e-05
5.16354e-05
0.000111817
4.27436e-05
2.68024e-05
6.94821e-05
0.000129209
0.000768428
2.85916e-05
6.83748e-05
4.34473e-05
6.12585e-05
0.000136173
0.000120183
3.17643e-06
3.52689e-05
9.59682e-06
0.000977542
6.69651e-05
4.77326e-05
9.48653e-05
0.00120836
0.000103974
0.000140178
0.000213368
0.000865548
0.000197468
0.000111874
0.000641561
1.00007e-05
4.99042e-07
2.53475e-05
0.000614211
0.00045095
5.70643e-05
0.000120471
0.000215137
0.000654359
0.000432392
0.000107289
0.00111763
0.000400853
0.000229374
0.000260376
0.00033138
1.09932e-05
1.56129e-05
0.000442558
0.000671782
0.0012443
0.000316388
0.000627742
2.83212e-05
1.12951e-05
0.000120886
0.000302421
8.3266e-06
7.38092e-05
4.27405e-05
0.000129237
0.000230072
4.24731e-05
0.000625793
1.78196e-05
0.000674675
6.39524e-05
0.00089644
0.000117728
5.74708e-05
2.37679e-05
0.00118568
0.000147859
0.00116961
6.67957e-05
2.40698e-05
2.09121e-05
6.96364e-05
8.3316e-05
3.82844e-05
0.000213814
0.000965889
0.000599488
5.9235e-05
6.00776e-05
0.000471077
0.000498668
0.00049344
0.00057261
0.000808747
0.00112621
0.0005025
0.00126776
0.000165821
6.21241e-05
0.00122634
0.00128109
0.000537878
0.0012217
0.0002241
0.000784595
0.00111431
6.89161e-05
0.000104396
0.000129685
4.69138e-05
0.000865145
0.000977094
0.000463052
1.20417e-05
5.52835e-05
1.15403e-05
0.000392991
0.000715505
0.00125317
0.000579249
0.000507935
3.12141e-05
7.77613e-05
0.000121773
0.00128069
2.84297e-05
0.000102334
7.66374e-05
9.14068e-06
7.4589e-05
0.000223964
0.000127598
1.18826e-05
0.000908681
7.69158e-05
0.000131891
0.000156922
2.56992e-05
2.89956e-05
0.000972731
9.11285e-05
0.000135781
0.000305257
6.84419e-05
2.07901e-05
3.32718e-05
0.000117339
0.00060821
0.00100995
2.32691e-05
0.000152739
0.000129204
5.62498e-05
6.89462e-05
7.14272e-05
6.44153e-05
4.56366e-05
6.90101e-05
8.54803e-05
0.000431735
8.6808e-06
0.000346046
1.37888e-05
0.000313552
9.88271e-06
8.29999e-05
0.000122727
9.73626e-05
2.90734e-05
7.33224e-05
0.000257598
5.11499e-05
1.92843e-05
3.77997e-05
0.000441966
7.21042e-05
0.000553767
1.09027e-05
8.94203e-06
9.2075e-05
4.55632e-06
1.05075e-05
0.00107925
3.9991e-06
6.38297e-07
0.000144868
3.61279e-05
0.000109637
9.49031e-05
0.000633711
0.000369057
8.20882e-05
0.000864327
0.000110167
0.000624378
4.16777e-05
0.000160614
4.30067e-05
1.82728e-05
3.76727e-05
1.29869e-05
0.000177126
2.77327e-07
9.18138e-05
3.86455e-12
0.00045872
0.000110724
4.02195e-05
0.000123305
0.000169851
0.000625731
5.42504e-06
5.42579e-05
1.01653e-05
0.00018126
0.00110773
3.7809e-05
4.93697e-05
1.74573e-05
0.000630224
5.6424e-05
0.00020122
0.000134819
9.67789e-05
7.42914e-05
0.000508581
5.32207e-05
0.00040116
0.00100868
2.29882e-05
0.000428361
0.000803954
5.70005e-05
0.000576712
6.10496e-05
9.6312e-05
6.89959e-05
0.000336931
3.54716e-05
4.83778e-05
9.07629e-05
2.96662e-05
6.40506e-05
5.64928e-05
0.00101096
0.000169544
0.000183406
3.67775e-05
8.83136e-06
0.00110496
3.38305e-05
9.07598e-05
4.44267e-07
0.000946056
2.41666e-06
0.000324165
0.000116862
7.0913e-05
4.04267e-05
0.000281718
0.000353625
0.000282637
0.000690287
3.26935e-05
0.000269213
0.000326197
3.35155e-05
4.40924e-05
0.000595531
4.09651e-05
0.000125872
2.55071e-05
8.85552e-05
0.00116732
0.000259958
2.27565e-05
2.82288e-05
2.60209e-05
0.0010661
0.000694507
0.000128213
0.00116535
0.000353097
0.0002903
0.000176818
0.000136578
0.000214709
5.48444e-05
0.000126799
0.000281734
1.5569e-05
0.000205501
0.00106696
0.000317722
0.00012443
0.000247734
0.000119057
0.000577461
0.000527793
9.91573e-05
1.95626e-05
0.0008609
0.000982337
0.000165044
2.38015e-05
1.14529e-05
0.000969086
0.00103332
2.44361e-05
0.000127217
0.000438759
5.12022e-05
0.000630684
0.000259151
8.04819e-05
2.66542e-05
3.20105e-05
8.96175e-06
0.000474341
5.99507e-05
8.76058e-06
2.8095e-05
0.000514794
5.8525e-06
7.5814e-05
0.000215079
7.77597e-05
0.000115817
0.000106679
9.01461e-06
0.000126949
1.82199e-05
4.56951e-05
0.000107998
0.000838814
3.99835e-05
7.29142e-05
0.000340466
0.000153302
7.35048e-05
7.52665e-05
1.80049e-05
0.000449736
0.000406961
5.91161e-05
3.73831e-05
0.000466624
0.000273075
0.00016376
0.000218078
6.19401e-05
5.43728e-05
0.000922806
6.44893e-05
5.23317e-05
9.20874e-06
0.000483218
5.47834e-05
0.000476166
6.20219e-05
6.07077e-05
2.32264e-06
0.00122318
9.5968e-05
0.00128443
4.35009e-06
0.000138988
3.96199e-05
0.000100283
7.50508e-05
0.000671951
0.000118903
1.87308e-05
1.0358e-05
7.28025e-05
1.54776e-06
1.88736e-05
8.4724e-06
1.07165e-05
3.15712e-05
1.63285e-05
3.03617e-05
0.000519941
4.22822e-05
2.23082e-05
0.000291546
0.000603041
1.72693e-05
0.000225783
0.000111174
0.000693659
0.00125962
3.14832e-05
0.000133287
5.0451e-05
1.97672e-05
8.17703e-05
3.73218e-05
2.8849e-05
3.90207e-05
0.00107771
0.000162912
0.000258762
8.61495e-06
8.03047e-05
1.82951e-05
0.000276277
0.000152597
4.66509e-05
1.91392e-05
0.00012154
0.000486987
9.64163e-06
9.72844e-06
0.000103335
4.79713e-05
0.00021537
0.000770259
5.61602e-05
0.000231352
0.00115266
0.00123567
0.000432166
0.000737326
0.000443724
1.13175e-05
0.000411449
7.92679e-05
0.000123478
0.000391438
0.000683293
5.32937e-05
7.60142e-05
0.000435299
8.09951e-05
2.33879e-05
2.73729e-05
0.000192413
0.00100755
1.55155e-05
0.000349753
0.000205595
9.47645e-05
5.87447e-05
0.000598315
3.94808e-05
1.37114e-05
0.000816676
0.000296709
3.98994e-05
0.000256678
0.000369346
0.000296198
1.66917e-05
1.0952e-05
4.74378e-05
0.000139311
0.00117699
0.000513079
4.71876e-05
0.000335636
6.38423e-05
1.97068e-05
9.63503e-05
0.000290908
1.49459e-05
7.57078e-05
0.000261178
7.28556e-05
0.00010935
0.000141712
8.60497e-05
2.25881e-05
0.00121631
5.03429e-05
6.1236e-05
0.00121642
0.000414381
0.000242199
7.27689e-05
2.66803e-05
4.23011e-05
0.000109276
0.000128324
0.000954859
0.000858767
0.00032436
7.89243e-05
0.000641501
0.000270765
0.000526926
1.51444e-06
0.000626383
0.000484201
0.000859369
0.000686292
0.000844743
0.000984862
0.00104204
5.47633e-05
0.000694382
0.000468801
0.000581607
0.000448123
0.000408574
6.64405e-05
0.000671337
1.49341e-05
6.13078e-05
4.25608e-05
0.000147088
1.36001e-05
1.78477e-05
6.5182e-05
2.8293e-07
0.000585531
2.09114e-05
0.000223841
2.07562e-05
2.78414e-05
4.99775e-05
0.000307912
0.000425068
0.000566036
0.000111463
4.70842e-05
6.15473e-05
0.000449635
9.46364e-06
0.000164496
9.07088e-06
1.07452e-05
2.7812e-05
8.82993e-06
1.87473e-05
1.0695e-05
0.000254457
6.3853e-05
7.48961e-05
7.234e-05
5.10559e-05
1.62568e-05
0.000324582
0.000135086
3.68641e-05
0.000104403
1.95455e-05
4.81563e-05
0.000582321
4.54838e-05
0.000454595
0.000142612
3.86298e-05
0.000163937
7.21714e-05
5.75994e-05
1.10587e-05
0.000760227
0.000498355
1.60259e-05
9.77188e-05
1.74695e-05
2.43392e-05
0.000187474
5.64172e-05
1.42967e-05
7.70571e-06
3.00317e-06
0.000355492
6.29392e-05
0.000539547
0.000118857
0.000452972
0.000386488
9.86245e-06
0.000122229
6.35711e-05
5.69135e-05
0.000435406
0.000259649
0.000331361
5.67307e-05
6.21705e-05
2.24028e-05
0.000421341
0.00126469
0.000639191
0.0012824
0.000110049
0.000241502
5.27735e-05
0.00039376
0.00122958
6.00907e-05
1.78637e-05
0.000156151
2.25469e-05
0.000117611
6.34809e-05
0.00015812
5.8042e-05
0.000367712
0.000182788
3.22573e-05
0.000250528
2.55628e-05
0.000622705
1.19504e-05
0.000488127
0.000396461
0.000485759
7.37962e-05
9.47712e-06
0.000341611
0.000476275
0.000289042
0.0002653
0.00103176
0.00036487
5.29862e-05
0.000773378
0.000404785
2.0643e-05
1.61779e-05
0.000964544
0.000152138
0.000852184
4.02149e-05
0.000467978
0.000621868
3.81826e-05
0.000462421
0.000507528
0.00054591
7.01685e-05
0.000209977
0.000378214
0.000331301
0.000587486
9.36135e-05
3.00196e-05
4.99397e-05
0.00118001
0.000883599
0.000505521
0.000236634
2.86769e-05
0.000497615
4.12892e-05
0.000117734
1.99224e-05
1.16165e-05
0.000185899
0.00073356
3.52438e-05
3.1793e-05
8.99845e-05
2.31158e-05
0.000863829
0.000507204
0.000175413
9.11185e-06
5.33361e-05
0.000484814
6.76176e-05
9.26427e-06
0.000421639
9.57865e-06
0.000446363
0.00073377
0.00019421
0.000211431
0.000127107
0.00042374
0.000550365
0.000469243
0.000875584
1.30042e-05