# vtk DataFile Version 2.0
DGS printing
ASCII
DATASET UNSTRUCTURED_GRID
POINTS  48  floats
21.28324 20.80874 22.31800 21.27974 20.75376 22.31800 21.22476 20.75726 22.31800 
21.22826 20.81224 22.31800 21.28324 20.80874 21.59701 21.27974 20.75376 21.59701 
21.22476 20.75726 21.59701 21.22826 20.81224 21.59701 21.29288 20.78052 22.31800 
21.25152 20.74412 22.31800 21.21512 20.78548 22.31800 21.25648 20.82188 22.31800 
21.29288 20.78052 21.59701 21.25152 20.74412 21.59701 21.21512 20.78548 21.59701 
21.25648 20.82188 21.59701 21.28324 20.80874 21.95751 21.27974 20.75376 21.95751 
21.22476 20.75726 21.95751 21.22826 20.81224 21.95751 21.25648 20.82188 21.95751 
21.25152 20.74412 21.95751 21.29288 20.78052 21.95751 21.21512 20.78548 21.95751 
21.28783 20.80233 21.59700 21.27333 20.74917 21.59700 21.22017 20.76367 21.59700 
21.23467 20.81683 21.59700 21.28783 20.80233 20.87601 21.27333 20.74917 20.87601 
21.22017 20.76367 20.87601 21.23467 20.81683 20.87601 21.29159 20.77275 21.59700 
21.24375 20.74541 21.59700 21.21641 20.79325 21.59700 21.26425 20.82059 21.59700 
21.29159 20.77275 20.87601 21.24375 20.74541 20.87601 21.21641 20.79325 20.87601 
21.26425 20.82059 20.87601 21.28783 20.80233 21.23651 21.27333 20.74917 21.23651 
21.22017 20.76367 21.23651 21.23467 20.81683 21.23651 21.26425 20.82059 21.23651 
21.24375 20.74541 21.23651 21.29159 20.77275 21.23651 21.21641 20.79325 21.23651 
CELLS  2   50
24 0 1 2 3 4 5 6 7 8 9 10 11 12 13 14 15 16 17 18 19 20 21 22 23
24 24 25 26 27 28 29 30 31 32 33 34 35 36 37 38 39 40 41 42 43 44 45 46 47
CELL_TYPES  2 
33
33
CELL_DATA  2 
SCALARS node_id int 1 
LOOKUP_TABLE default
1
2
SCALARS average_vol_activity_bq_m3 double 1 
LOOKUP_TABLE default
6.04633e+01
0.00000e+00
SCALARS total_activity_bq double 1 
LOOKUP_TABLE default
2.07879e-01
0.00000e+00
SCALARS mc_error double 1 
LOOKUP_TABLE default
0.00000
0.00000
