# vtk DataFile Version 2.0
DGS printing
ASCII
DATASET UNSTRUCTURED_GRID
POINTS  48  floats
21.28505 20.80653 22.31800 21.27753 20.75195 22.31800 21.22295 20.75947 22.31800 
21.23047 20.81405 22.31800 21.28505 20.80653 21.59701 21.27753 20.75195 21.59701 
21.22295 20.75947 21.59701 21.23047 20.81405 21.59701 21.29260 20.77768 22.31800 
21.24868 20.74440 22.31800 21.21540 20.78832 22.31800 21.25932 20.82160 22.31800 
21.29260 20.77768 21.59701 21.24868 20.74440 21.59701 21.21540 20.78832 21.59701 
21.25932 20.82160 21.59701 21.28505 20.80653 21.95751 21.27753 20.75195 21.95751 
21.22295 20.75947 21.95751 21.23047 20.81405 21.95751 21.25932 20.82160 21.95751 
21.24868 20.74440 21.95751 21.29260 20.77768 21.95751 21.21540 20.78832 21.95751 
21.28819 20.80167 21.59700 21.27267 20.74881 21.59700 21.21981 20.76433 21.59700 
21.23533 20.81719 21.59700 21.28819 20.80167 20.87601 21.27267 20.74881 20.87601 
21.21981 20.76433 20.87601 21.23533 20.81719 20.87601 21.29138 20.77202 21.59700 
21.24302 20.74562 21.59700 21.21662 20.79398 21.59700 21.26498 20.82038 21.59700 
21.29138 20.77202 20.87601 21.24302 20.74562 20.87601 21.21662 20.79398 20.87601 
21.26498 20.82038 20.87601 21.28819 20.80167 21.23651 21.27267 20.74881 21.23651 
21.21981 20.76433 21.23651 21.23533 20.81719 21.23651 21.26498 20.82038 21.23651 
21.24302 20.74562 21.23651 21.29138 20.77202 21.23651 21.21662 20.79398 21.23651 
CELLS  2   50
24 0 1 2 3 4 5 6 7 8 9 10 11 12 13 14 15 16 17 18 19 20 21 22 23
24 24 25 26 27 28 29 30 31 32 33 34 35 36 37 38 39 40 41 42 43 44 45 46 47
CELL_TYPES  2 
33
33
CELL_DATA  2 
SCALARS average_vol_activity_bq_m3 double 1 
LOOKUP_TABLE default
99.20422
97.62953
SCALARS total_activity_bq double 1 
LOOKUP_TABLE default
0.34107
0.33566
SCALARS mc_error double 1 
LOOKUP_TABLE default
0.00000
0.00000
