# vtk DataFile Version 2.0
DGS printing
ASCII
DATASET UNSTRUCTURED_GRID
POINTS  48  floats
21.27576 20.81532 22.31800 21.28632 20.76124 22.31800 21.23224 20.75068 22.31800 
21.22168 20.80476 22.31800 21.27576 20.81532 21.59701 21.28632 20.76124 21.59701 
21.23224 20.75068 21.59701 21.22168 20.80476 21.59701 21.29224 20.79047 22.31800 
21.26147 20.74476 22.31800 21.21576 20.77553 22.31800 21.24653 20.82124 22.31800 
21.29224 20.79047 21.59701 21.26147 20.74476 21.59701 21.21576 20.77553 21.59701 
21.24653 20.82124 21.59701 21.27576 20.81532 21.95751 21.28632 20.76124 21.95751 
21.23224 20.75068 21.95751 21.22168 20.80476 21.95751 21.24653 20.82124 21.95751 
21.26147 20.74476 21.95751 21.29224 20.79047 21.95751 21.21576 20.77553 21.95751 
21.29082 20.79573 21.59700 21.26673 20.74618 21.59700 21.21718 20.77027 21.59700 
21.24127 20.81982 21.59700 21.29082 20.79573 20.87601 21.26673 20.74618 20.87601 
21.21718 20.77027 20.87601 21.24127 20.81982 20.87601 21.28904 20.76597 21.59700 
21.23697 20.74796 21.59700 21.21896 20.80003 21.59700 21.27103 20.81804 21.59700 
21.28904 20.76597 20.87601 21.23697 20.74796 20.87601 21.21896 20.80003 20.87601 
21.27103 20.81804 20.87601 21.29082 20.79573 21.23651 21.26673 20.74618 21.23651 
21.21718 20.77027 21.23651 21.24127 20.81982 21.23651 21.27103 20.81804 21.23651 
21.23697 20.74796 21.23651 21.28904 20.76597 21.23651 21.21896 20.80003 21.23651 
CELLS  2   50
24 0 1 2 3 4 5 6 7 8 9 10 11 12 13 14 15 16 17 18 19 20 21 22 23
24 24 25 26 27 28 29 30 31 32 33 34 35 36 37 38 39 40 41 42 43 44 45 46 47
CELL_TYPES  2 
33
33
CELL_DATA  2 
SCALARS average_vol_activity_bq_m3 double 1 
LOOKUP_TABLE default
99.20422
97.62953
SCALARS total_activity_bq double 1 
LOOKUP_TABLE default
0.34107
0.33566
SCALARS mc_error double 1 
LOOKUP_TABLE default
0.00000
0.00000
