# vtk DataFile Version 2.0
DGS printing
ASCII
DATASET UNSTRUCTURED_GRID
POINTS  48  floats
21.28528 20.80622 22.31800 21.27722 20.75172 22.31800 21.22272 20.75978 22.31800 
21.23078 20.81428 22.31800 21.28528 20.80622 21.59701 21.27722 20.75172 21.59701 
21.22272 20.75978 21.59701 21.23078 20.81428 21.59701 21.29254 20.77730 22.31800 
21.24830 20.74446 22.31800 21.21546 20.78870 22.31800 21.25970 20.82154 22.31800 
21.29254 20.77730 21.59701 21.24830 20.74446 21.59701 21.21546 20.78870 21.59701 
21.25970 20.82154 21.59701 21.28528 20.80622 21.95751 21.27722 20.75172 21.95751 
21.22272 20.75978 21.95751 21.23078 20.81428 21.95751 21.25970 20.82154 21.95751 
21.24830 20.74446 21.95751 21.29254 20.77730 21.95751 21.21546 20.78870 21.95751 
21.28209 20.81000 21.59700 21.28100 20.75491 21.59700 21.22591 20.75600 21.59700 
21.22700 20.81109 21.59700 21.28209 20.81000 20.87601 21.28100 20.75491 20.87601 
21.22591 20.75600 20.87601 21.22700 20.81109 20.87601 21.29295 20.78223 21.59700 
21.25323 20.74405 21.59700 21.21505 20.78377 21.59700 21.25477 20.82195 21.59700 
21.29295 20.78223 20.87601 21.25323 20.74405 20.87601 21.21505 20.78377 20.87601 
21.25477 20.82195 20.87601 21.28209 20.81000 21.23651 21.28100 20.75491 21.23651 
21.22591 20.75600 21.23651 21.22700 20.81109 21.23651 21.25477 20.82195 21.23651 
21.25323 20.74405 21.23651 21.29295 20.78223 21.23651 21.21505 20.78377 21.23651 
CELLS  2   50
24 0 1 2 3 4 5 6 7 8 9 10 11 12 13 14 15 16 17 18 19 20 21 22 23
24 24 25 26 27 28 29 30 31 32 33 34 35 36 37 38 39 40 41 42 43 44 45 46 47
CELL_TYPES  2 
33
33
CELL_DATA  2 
SCALARS node_id int 1 
LOOKUP_TABLE default
1
2
SCALARS average_vol_activity_bq_m3 double 1 
LOOKUP_TABLE default
9.92042e+01
9.76295e+01
SCALARS total_activity_bq double 1 
LOOKUP_TABLE default
3.41074e-01
3.35660e-01
SCALARS mc_error double 1 
LOOKUP_TABLE default
0.00000
0.00000
