# vtk DataFile Version 2.0
DGS printing
ASCII
DATASET UNSTRUCTURED_GRID
POINTS  48  floats
21.25643 20.82188 22.31800 21.29288 20.78057 22.31800 21.25157 20.74412 22.31800 
21.21512 20.78543 22.31800 21.25643 20.82188 21.59701 21.29288 20.78057 21.59701 
21.25157 20.74412 21.59701 21.21512 20.78543 21.59701 21.28321 20.80878 22.31800 
21.27978 20.75379 22.31800 21.22479 20.75722 22.31800 21.22822 20.81221 22.31800 
21.28321 20.80878 21.59701 21.27978 20.75379 21.59701 21.22479 20.75722 21.59701 
21.22822 20.81221 21.59701 21.25643 20.82188 21.95751 21.29288 20.78057 21.95751 
21.25157 20.74412 21.95751 21.21512 20.78543 21.95751 21.22822 20.81221 21.95751 
21.27978 20.75379 21.95751 21.28321 20.80878 21.95751 21.22479 20.75722 21.95751 
21.27564 20.81540 21.59700 21.28640 20.76136 21.59700 21.23236 20.75060 21.59700 
21.22160 20.80464 21.59700 21.27564 20.81540 20.87601 21.28640 20.76136 20.87601 
21.23236 20.75060 20.87601 21.22160 20.80464 20.87601 21.29221 20.79061 21.59700 
21.26161 20.74479 21.59700 21.21579 20.77539 21.59700 21.24639 20.82121 21.59700 
21.29221 20.79061 20.87601 21.26161 20.74479 20.87601 21.21579 20.77539 20.87601 
21.24639 20.82121 20.87601 21.27564 20.81540 21.23651 21.28640 20.76136 21.23651 
21.23236 20.75060 21.23651 21.22160 20.80464 21.23651 21.24639 20.82121 21.23651 
21.26161 20.74479 21.23651 21.29221 20.79061 21.23651 21.21579 20.77539 21.23651 
CELLS  2   50
24 0 1 2 3 4 5 6 7 8 9 10 11 12 13 14 15 16 17 18 19 20 21 22 23
24 24 25 26 27 28 29 30 31 32 33 34 35 36 37 38 39 40 41 42 43 44 45 46 47
CELL_TYPES  2 
33
33
CELL_DATA  2 
SCALARS average_vol_activity_bq_m3 double 1 
LOOKUP_TABLE default
99.20422
97.62953
SCALARS total_activity_bq double 1 
LOOKUP_TABLE default
0.34107
0.33566
SCALARS mc_error double 1 
LOOKUP_TABLE default
0.00000
0.00000
