# vtk DataFile Version 2.0
DGS printing
ASCII
DATASET UNSTRUCTURED_GRID
POINTS  48  floats
21.29251 20.78893 22.31800 21.25993 20.74449 22.31800 21.21549 20.77707 22.31800 
21.24807 20.82151 22.31800 21.29251 20.78893 21.59701 21.25993 20.74449 21.59701 
21.21549 20.77707 21.59701 21.24807 20.82151 21.59701 21.28542 20.75996 22.31800 
21.23096 20.75158 22.31800 21.22258 20.80604 22.31800 21.27704 20.81442 22.31800 
21.28542 20.75996 21.59701 21.23096 20.75158 21.59701 21.22258 20.80604 21.59701 
21.27704 20.81442 21.59701 21.29251 20.78893 21.95751 21.25993 20.74449 21.95751 
21.21549 20.77707 21.95751 21.24807 20.82151 21.95751 21.27704 20.81442 21.95751 
21.23096 20.75158 21.95751 21.28542 20.75996 21.95751 21.22258 20.80604 21.95751 
21.29196 20.79177 21.59700 21.26277 20.74504 21.59700 21.21604 20.77423 21.59700 
21.24523 20.82096 21.59700 21.29196 20.79177 20.87601 21.26277 20.74504 20.87601 
21.21604 20.77423 20.87601 21.24523 20.82096 20.87601 21.28705 20.76236 21.59700 
21.23336 20.74995 21.59700 21.22095 20.80364 21.59700 21.27464 20.81605 21.59700 
21.28705 20.76236 20.87601 21.23336 20.74995 20.87601 21.22095 20.80364 20.87601 
21.27464 20.81605 20.87601 21.29196 20.79177 21.23651 21.26277 20.74504 21.23651 
21.21604 20.77423 21.23651 21.24523 20.82096 21.23651 21.27464 20.81605 21.23651 
21.23336 20.74995 21.23651 21.28705 20.76236 21.23651 21.22095 20.80364 21.23651 
CELLS  2   50
24 0 1 2 3 4 5 6 7 8 9 10 11 12 13 14 15 16 17 18 19 20 21 22 23
24 24 25 26 27 28 29 30 31 32 33 34 35 36 37 38 39 40 41 42 43 44 45 46 47
CELL_TYPES  2 
33
33
CELL_DATA  2 
SCALARS node_id int 1 
LOOKUP_TABLE default
1
2
SCALARS average_vol_activity_bq_m3 double 1 
LOOKUP_TABLE default
9.92042e+01
9.76295e+01
SCALARS total_activity_bq double 1 
LOOKUP_TABLE default
3.41074e-01
3.35660e-01
SCALARS mc_error double 1 
LOOKUP_TABLE default
0.00000
0.00000
