# vtk DataFile Version 2.0
DGS printing
ASCII
DATASET UNSTRUCTURED_GRID
POINTS  48  floats
21.28225 20.80983 22.31800 21.28083 20.75475 22.31800 21.22575 20.75617 22.31800 
21.22717 20.81125 22.31800 21.28225 20.80983 21.59701 21.28083 20.75475 21.59701 
21.22575 20.75617 21.59701 21.22717 20.81125 21.59701 21.29295 20.78200 22.31800 
21.25300 20.74405 22.31800 21.21505 20.78400 22.31800 21.25500 20.82195 22.31800 
21.29295 20.78200 21.59701 21.25300 20.74405 21.59701 21.21505 20.78400 21.59701 
21.25500 20.82195 21.59701 21.28225 20.80983 21.95751 21.28083 20.75475 21.95751 
21.22575 20.75617 21.95751 21.22717 20.81125 21.95751 21.25500 20.82195 21.95751 
21.25300 20.74405 21.95751 21.29295 20.78200 21.95751 21.21505 20.78400 21.95751 
21.28503 20.80656 21.59700 21.27756 20.75197 21.59700 21.22297 20.75944 21.59700 
21.23044 20.81403 21.59700 21.28503 20.80656 20.87601 21.27756 20.75197 20.87601 
21.22297 20.75944 20.87601 21.23044 20.81403 20.87601 21.29260 20.77772 21.59700 
21.24872 20.74440 21.59700 21.21540 20.78828 21.59700 21.25928 20.82160 21.59700 
21.29260 20.77772 20.87601 21.24872 20.74440 20.87601 21.21540 20.78828 20.87601 
21.25928 20.82160 20.87601 21.28503 20.80656 21.23651 21.27756 20.75197 21.23651 
21.22297 20.75944 21.23651 21.23044 20.81403 21.23651 21.25928 20.82160 21.23651 
21.24872 20.74440 21.23651 21.29260 20.77772 21.23651 21.21540 20.78828 21.23651 
CELLS  2   50
24 0 1 2 3 4 5 6 7 8 9 10 11 12 13 14 15 16 17 18 19 20 21 22 23
24 24 25 26 27 28 29 30 31 32 33 34 35 36 37 38 39 40 41 42 43 44 45 46 47
CELL_TYPES  2 
33
33
CELL_DATA  2 
SCALARS average_vol_activity_bq_m3 double 1 
LOOKUP_TABLE default
99.20422
97.62953
SCALARS total_activity_bq double 1 
LOOKUP_TABLE default
0.34107
0.33566
SCALARS mc_error double 1 
LOOKUP_TABLE default
0.00000
0.00000
