# vtk DataFile Version 2.0
DGS printing
ASCII
DATASET UNSTRUCTURED_GRID
POINTS  48  floats
21.28045 20.81161 22.31800 21.28261 20.75655 22.31800 21.22755 20.75439 22.31800 
21.22539 20.80945 22.31800 21.28045 20.81161 21.59701 21.28261 20.75655 21.59701 
21.22755 20.75439 21.59701 21.22539 20.80945 21.59701 21.29293 20.78453 22.31800 
21.25553 20.74407 22.31800 21.21507 20.78147 22.31800 21.25247 20.82193 22.31800 
21.29293 20.78453 21.59701 21.25553 20.74407 21.59701 21.21507 20.78147 21.59701 
21.25247 20.82193 21.59701 21.28045 20.81161 21.95751 21.28261 20.75655 21.95751 
21.22755 20.75439 21.95751 21.22539 20.80945 21.95751 21.25247 20.82193 21.95751 
21.25553 20.74407 21.95751 21.29293 20.78453 21.95751 21.21507 20.78147 21.95751 
21.25524 20.82194 21.59700 21.29294 20.78176 21.59700 21.25276 20.74406 21.59700 
21.21506 20.78424 21.59700 21.25524 20.82194 20.87601 21.29294 20.78176 20.87601 
21.25276 20.74406 20.87601 21.21506 20.78424 20.87601 21.28241 20.80966 21.59700 
21.28066 20.75459 21.59700 21.22559 20.75634 21.59700 21.22734 20.81141 21.59700 
21.28241 20.80966 20.87601 21.28066 20.75459 20.87601 21.22559 20.75634 20.87601 
21.22734 20.81141 20.87601 21.25524 20.82194 21.23651 21.29294 20.78176 21.23651 
21.25276 20.74406 21.23651 21.21506 20.78424 21.23651 21.22734 20.81141 21.23651 
21.28066 20.75459 21.23651 21.28241 20.80966 21.23651 21.22559 20.75634 21.23651 
CELLS  2   50
24 0 1 2 3 4 5 6 7 8 9 10 11 12 13 14 15 16 17 18 19 20 21 22 23
24 24 25 26 27 28 29 30 31 32 33 34 35 36 37 38 39 40 41 42 43 44 45 46 47
CELL_TYPES  2 
33
33
CELL_DATA  2 
SCALARS node_id int 1 
LOOKUP_TABLE default
1
2
SCALARS average_vol_activity_bq_m3 double 1 
LOOKUP_TABLE default
9.92042e+01
9.76295e+01
SCALARS total_activity_bq double 1 
LOOKUP_TABLE default
3.41074e-01
3.35660e-01
SCALARS mc_error double 1 
LOOKUP_TABLE default
0.00000
0.00000
