# vtk DataFile Version 2.0
DGS printing
ASCII
DATASET UNSTRUCTURED_GRID
POINTS  48  floats
21.28132 20.81077 22.31800 21.28177 20.75568 22.31800 21.22668 20.75523 22.31800 
21.22623 20.81032 22.31800 21.28132 20.81077 21.59701 21.28177 20.75568 21.59701 
21.22668 20.75523 21.59701 21.22623 20.81032 21.59701 21.29296 20.78332 22.31800 
21.25432 20.74404 22.31800 21.21504 20.78268 22.31800 21.25368 20.82196 22.31800 
21.29296 20.78332 21.59701 21.25432 20.74404 21.59701 21.21504 20.78268 21.59701 
21.25368 20.82196 21.59701 21.28132 20.81077 21.95751 21.28177 20.75568 21.95751 
21.22668 20.75523 21.95751 21.22623 20.81032 21.95751 21.25368 20.82196 21.95751 
21.25432 20.74404 21.95751 21.29296 20.78332 21.95751 21.21504 20.78268 21.95751 
21.29170 20.79285 21.59700 21.26385 20.74530 21.59700 21.21630 20.77315 21.59700 
21.24415 20.82070 21.59700 21.29170 20.79285 20.87601 21.26385 20.74530 20.87601 
21.21630 20.77315 20.87601 21.24415 20.82070 20.87601 21.28762 20.76331 21.59700 
21.23431 20.74938 21.59700 21.22038 20.80269 21.59700 21.27369 20.81662 21.59700 
21.28762 20.76331 20.87601 21.23431 20.74938 20.87601 21.22038 20.80269 20.87601 
21.27369 20.81662 20.87601 21.29170 20.79285 21.23651 21.26385 20.74530 21.23651 
21.21630 20.77315 21.23651 21.24415 20.82070 21.23651 21.27369 20.81662 21.23651 
21.23431 20.74938 21.23651 21.28762 20.76331 21.23651 21.22038 20.80269 21.23651 
CELLS  2   50
24 0 1 2 3 4 5 6 7 8 9 10 11 12 13 14 15 16 17 18 19 20 21 22 23
24 24 25 26 27 28 29 30 31 32 33 34 35 36 37 38 39 40 41 42 43 44 45 46 47
CELL_TYPES  2 
33
33
CELL_DATA  2 
SCALARS average_vol_activity_bq_m3 double 1 
LOOKUP_TABLE default
60.46326
0.00000
SCALARS total_activity_bq double 1 
LOOKUP_TABLE default
0.20788
0.00000
SCALARS mc_error double 1 
LOOKUP_TABLE default
0.00000
0.00000
