# vtk DataFile Version 2.0
DGS printing
ASCII
DATASET UNSTRUCTURED_GRID
POINTS  48  floats
21.29224 20.79045 22.31800 21.26145 20.74476 22.31800 21.21576 20.77555 22.31800 
21.24655 20.82124 22.31800 21.29224 20.79045 21.59701 21.26145 20.74476 21.59701 
21.21576 20.77555 21.59701 21.24655 20.82124 21.59701 21.28631 20.76123 22.31800 
21.23223 20.75069 22.31800 21.22169 20.80477 22.31800 21.27577 20.81531 22.31800 
21.28631 20.76123 21.59701 21.23223 20.75069 21.59701 21.22169 20.80477 21.59701 
21.27577 20.81531 21.59701 21.29224 20.79045 21.95751 21.26145 20.74476 21.95751 
21.21576 20.77555 21.95751 21.24655 20.82124 21.95751 21.27577 20.81531 21.95751 
21.23223 20.75069 21.95751 21.28631 20.76123 21.95751 21.22169 20.80477 21.95751 
21.28186 20.81024 21.59700 21.28124 20.75514 21.59700 21.22614 20.75576 21.59700 
21.22676 20.81086 21.59700 21.28186 20.81024 20.87601 21.28124 20.75514 20.87601 
21.22614 20.75576 20.87601 21.22676 20.81086 20.87601 21.29296 20.78256 21.59700 
21.25356 20.74404 21.59700 21.21504 20.78344 21.59700 21.25444 20.82196 21.59700 
21.29296 20.78256 20.87601 21.25356 20.74404 20.87601 21.21504 20.78344 20.87601 
21.25444 20.82196 20.87601 21.28186 20.81024 21.23651 21.28124 20.75514 21.23651 
21.22614 20.75576 21.23651 21.22676 20.81086 21.23651 21.25444 20.82196 21.23651 
21.25356 20.74404 21.23651 21.29296 20.78256 21.23651 21.21504 20.78344 21.23651 
CELLS  2   50
24 0 1 2 3 4 5 6 7 8 9 10 11 12 13 14 15 16 17 18 19 20 21 22 23
24 24 25 26 27 28 29 30 31 32 33 34 35 36 37 38 39 40 41 42 43 44 45 46 47
CELL_TYPES  2 
33
33
CELL_DATA  2 
SCALARS node_id int 1 
LOOKUP_TABLE default
1
2
SCALARS average_vol_activity_bq_m3 double 1 
LOOKUP_TABLE default
9.92042e+01
9.76295e+01
SCALARS total_activity_bq double 1 
LOOKUP_TABLE default
3.41074e-01
3.35660e-01
SCALARS mc_error double 1 
LOOKUP_TABLE default
0.00000
0.00000
