# vtk DataFile Version 2.0
DGS printing
ASCII
DATASET UNSTRUCTURED_GRID
POINTS  48  floats
21.29289 20.78533 22.31800 21.25633 20.74411 22.31800 21.21511 20.78067 22.31800 
21.25167 20.82189 22.31800 21.29289 20.78533 21.59701 21.25633 20.74411 21.59701 
21.21511 20.78067 21.59701 21.25167 20.82189 21.59701 21.28315 20.75715 22.31800 
21.22815 20.75385 22.31800 21.22485 20.80885 22.31800 21.27985 20.81215 22.31800 
21.28315 20.75715 21.59701 21.22815 20.75385 21.59701 21.22485 20.80885 21.59701 
21.27985 20.81215 21.59701 21.29289 20.78533 21.95751 21.25633 20.74411 21.95751 
21.21511 20.78067 21.95751 21.25167 20.82189 21.95751 21.27985 20.81215 21.95751 
21.22815 20.75385 21.95751 21.28315 20.75715 21.95751 21.22485 20.80885 21.95751 
21.29176 20.79258 21.59700 21.26358 20.74524 21.59700 21.21624 20.77342 21.59700 
21.24442 20.82076 21.59700 21.29176 20.79258 20.87601 21.26358 20.74524 20.87601 
21.21624 20.77342 20.87601 21.24442 20.82076 20.87601 21.28748 20.76307 21.59700 
21.23407 20.74952 21.59700 21.22052 20.80293 21.59700 21.27393 20.81648 21.59700 
21.28748 20.76307 20.87601 21.23407 20.74952 20.87601 21.22052 20.80293 20.87601 
21.27393 20.81648 20.87601 21.29176 20.79258 21.23651 21.26358 20.74524 21.23651 
21.21624 20.77342 21.23651 21.24442 20.82076 21.23651 21.27393 20.81648 21.23651 
21.23407 20.74952 21.23651 21.28748 20.76307 21.23651 21.22052 20.80293 21.23651 
CELLS  2   50
24 0 1 2 3 4 5 6 7 8 9 10 11 12 13 14 15 16 17 18 19 20 21 22 23
24 24 25 26 27 28 29 30 31 32 33 34 35 36 37 38 39 40 41 42 43 44 45 46 47
CELL_TYPES  2 
33
33
CELL_DATA  2 
SCALARS average_vol_activity_bq_m3 double 1 
LOOKUP_TABLE default
99.20422
97.62953
SCALARS total_activity_bq double 1 
LOOKUP_TABLE default
0.34107
0.33566
SCALARS mc_error double 1 
LOOKUP_TABLE default
0.00000
0.00000
