# vtk DataFile Version 2.0
DGS printing
ASCII
DATASET UNSTRUCTURED_GRID
POINTS  48  floats
21.28510 20.80646 22.31800 21.27746 20.75190 22.31800 21.22290 20.75954 22.31800 
21.23054 20.81410 22.31800 21.28510 20.80646 21.59701 21.27746 20.75190 21.59701 
21.22290 20.75954 21.59701 21.23054 20.81410 21.59701 21.29258 20.77760 22.31800 
21.24860 20.74442 22.31800 21.21542 20.78840 22.31800 21.25940 20.82158 22.31800 
21.29258 20.77760 21.59701 21.24860 20.74442 21.59701 21.21542 20.78840 21.59701 
21.25940 20.82158 21.59701 21.28510 20.80646 21.95751 21.27746 20.75190 21.95751 
21.22290 20.75954 21.95751 21.23054 20.81410 21.95751 21.25940 20.82158 21.95751 
21.24860 20.74442 21.95751 21.29258 20.77760 21.95751 21.21542 20.78840 21.95751 
21.26149 20.82123 21.59700 21.29223 20.77551 21.59700 21.24651 20.74477 21.59700 
21.21577 20.79049 21.59700 21.26149 20.82123 20.87601 21.29223 20.77551 20.87601 
21.24651 20.74477 20.87601 21.21577 20.79049 20.87601 21.28633 20.80474 21.59700 
21.27574 20.75067 21.59700 21.22167 20.76126 21.59700 21.23226 20.81533 21.59700 
21.28633 20.80474 20.87601 21.27574 20.75067 20.87601 21.22167 20.76126 20.87601 
21.23226 20.81533 20.87601 21.26149 20.82123 21.23651 21.29223 20.77551 21.23651 
21.24651 20.74477 21.23651 21.21577 20.79049 21.23651 21.23226 20.81533 21.23651 
21.27574 20.75067 21.23651 21.28633 20.80474 21.23651 21.22167 20.76126 21.23651 
CELLS  2   50
24 0 1 2 3 4 5 6 7 8 9 10 11 12 13 14 15 16 17 18 19 20 21 22 23
24 24 25 26 27 28 29 30 31 32 33 34 35 36 37 38 39 40 41 42 43 44 45 46 47
CELL_TYPES  2 
33
33
CELL_DATA  2 
SCALARS node_id int 1 
LOOKUP_TABLE default
1
2
SCALARS average_vol_activity_bq_m3 double 1 
LOOKUP_TABLE default
6.04633e+01
0.00000e+00
SCALARS total_activity_bq double 1 
LOOKUP_TABLE default
2.07879e-01
0.00000e+00
SCALARS mc_error double 1 
LOOKUP_TABLE default
0.00000
0.00000
