# vtk DataFile Version 2.0
DGS printing
ASCII
DATASET UNSTRUCTURED_GRID
POINTS  48  floats
21.27798 20.81370 22.31800 21.28470 20.75902 22.31800 21.23002 20.75230 22.31800 
21.22330 20.80698 22.31800 21.27798 20.81370 21.59701 21.28470 20.75902 21.59701 
21.23002 20.75230 21.59701 21.22330 20.80698 21.59701 21.29267 20.78775 22.31800 
21.25875 20.74433 22.31800 21.21533 20.77825 22.31800 21.24925 20.82167 22.31800 
21.29267 20.78775 21.59701 21.25875 20.74433 21.59701 21.21533 20.77825 21.59701 
21.24925 20.82167 21.59701 21.27798 20.81370 21.95751 21.28470 20.75902 21.95751 
21.23002 20.75230 21.95751 21.22330 20.80698 21.95751 21.24925 20.82167 21.95751 
21.25875 20.74433 21.95751 21.29267 20.78775 21.95751 21.21533 20.77825 21.95751 
21.27944 20.81251 21.59700 21.28351 20.75756 21.59700 21.22856 20.75349 21.59700 
21.22449 20.80844 21.59700 21.27944 20.81251 20.87601 21.28351 20.75756 20.87601 
21.22856 20.75349 20.87601 21.22449 20.80844 20.87601 21.29285 20.78587 21.59700 
21.25687 20.74415 21.59700 21.21515 20.78013 21.59700 21.25113 20.82185 21.59700 
21.29285 20.78587 20.87601 21.25687 20.74415 20.87601 21.21515 20.78013 20.87601 
21.25113 20.82185 20.87601 21.27944 20.81251 21.23651 21.28351 20.75756 21.23651 
21.22856 20.75349 21.23651 21.22449 20.80844 21.23651 21.25113 20.82185 21.23651 
21.25687 20.74415 21.23651 21.29285 20.78587 21.23651 21.21515 20.78013 21.23651 
CELLS  2   50
24 0 1 2 3 4 5 6 7 8 9 10 11 12 13 14 15 16 17 18 19 20 21 22 23
24 24 25 26 27 28 29 30 31 32 33 34 35 36 37 38 39 40 41 42 43 44 45 46 47
CELL_TYPES  2 
33
33
CELL_DATA  2 
SCALARS node_id int 1 
LOOKUP_TABLE default
1
2
SCALARS average_vol_activity_bq_m3 double 1 
LOOKUP_TABLE default
9.92042e+01
9.76295e+01
SCALARS total_activity_bq double 1 
LOOKUP_TABLE default
3.41074e-01
3.35660e-01
SCALARS mc_error double 1 
LOOKUP_TABLE default
0.00000
0.00000
