# vtk DataFile Version 2.0
DGS printing
ASCII
DATASET UNSTRUCTURED_GRID
POINTS  48  floats
21.25495 20.82195 22.31800 21.29295 20.78205 22.31800 21.25305 20.74405 22.31800 
21.21505 20.78395 22.31800 21.25495 20.82195 21.59701 21.29295 20.78205 21.59701 
21.25305 20.74405 21.59701 21.21505 20.78395 21.59701 21.28221 20.80987 22.31800 
21.28087 20.75479 22.31800 21.22579 20.75613 22.31800 21.22713 20.81121 22.31800 
21.28221 20.80987 21.59701 21.28087 20.75479 21.59701 21.22579 20.75613 21.59701 
21.22713 20.81121 21.59701 21.25495 20.82195 21.95751 21.29295 20.78205 21.95751 
21.25305 20.74405 21.95751 21.21505 20.78395 21.95751 21.22713 20.81121 21.95751 
21.28087 20.75479 21.95751 21.28221 20.80987 21.95751 21.22579 20.75613 21.95751 
21.29019 20.79743 21.59700 21.26843 20.74681 21.59700 21.21781 20.76857 21.59700 
21.23957 20.81919 21.59700 21.29019 20.79743 20.87601 21.26843 20.74681 20.87601 
21.21781 20.76857 20.87601 21.23957 20.81919 20.87601 21.28979 20.76762 21.59700 
21.23862 20.74721 21.59700 21.21821 20.79838 21.59700 21.26938 20.81879 21.59700 
21.28979 20.76762 20.87601 21.23862 20.74721 20.87601 21.21821 20.79838 20.87601 
21.26938 20.81879 20.87601 21.29019 20.79743 21.23651 21.26843 20.74681 21.23651 
21.21781 20.76857 21.23651 21.23957 20.81919 21.23651 21.26938 20.81879 21.23651 
21.23862 20.74721 21.23651 21.28979 20.76762 21.23651 21.21821 20.79838 21.23651 
CELLS  2   50
24 0 1 2 3 4 5 6 7 8 9 10 11 12 13 14 15 16 17 18 19 20 21 22 23
24 24 25 26 27 28 29 30 31 32 33 34 35 36 37 38 39 40 41 42 43 44 45 46 47
CELL_TYPES  2 
33
33
CELL_DATA  2 
SCALARS node_id int 1 
LOOKUP_TABLE default
1
2
SCALARS average_vol_activity_bq_m3 double 1 
LOOKUP_TABLE default
9.92042e+01
9.76295e+01
SCALARS total_activity_bq double 1 
LOOKUP_TABLE default
3.41074e-01
3.35660e-01
SCALARS mc_error double 1 
LOOKUP_TABLE default
0.00000
0.00000
