# Selection   : all 
# Volume      : 3.242960e-04
# Time        	volAverage(T)
0             	0.000000e+00
32            	5.952076e+09
