# vtk DataFile Version 2.0
DGS printing
ASCII
DATASET UNSTRUCTURED_GRID
POINTS  72  floats
21.27133 19.81789 20.81800 21.28889 19.76567 20.81800 21.23667 19.74811 20.81800 
21.21911 19.80033 20.81800 21.27133 19.81789 19.37603 21.28889 19.76567 19.37603 
21.23667 19.74811 19.37603 21.21911 19.80033 19.37603 21.29093 19.79542 20.81800 
21.26642 19.74607 20.81800 21.21707 19.77058 20.81800 21.24158 19.81993 20.81800 
21.29093 19.79542 19.37603 21.26642 19.74607 19.37603 21.21707 19.77058 19.37603 
21.24158 19.81993 19.37603 21.27133 19.81789 20.09702 21.28889 19.76567 20.09702 
21.23667 19.74811 20.09702 21.21911 19.80033 20.09702 21.24158 19.81993 20.09702 
21.26642 19.74607 20.09702 21.29093 19.79542 20.09702 21.21707 19.77058 20.09702 
21.27637 20.81490 17.93410 21.22210 20.80537 17.93410 21.23163 20.75110 17.93410 
21.28590 20.76063 17.93410 21.27637 20.81490 19.37607 21.22210 20.80537 19.37607 
21.23163 20.75110 19.37607 21.28590 20.76063 19.37607 21.24726 20.82137 17.93410 
21.21563 20.77626 17.93410 21.26074 20.74463 17.93410 21.29237 20.78974 17.93410 
21.24726 20.82137 19.37607 21.21563 20.77626 19.37607 21.26074 20.74463 19.37607 
21.29237 20.78974 19.37607 21.27637 20.81490 18.65508 21.22210 20.80537 18.65508 
21.23163 20.75110 18.65508 21.28590 20.76063 18.65508 21.29237 20.78974 18.65508 
21.21563 20.77626 18.65508 21.24726 20.82137 18.65508 21.26074 20.74463 18.65508 
21.27798 20.81371 16.37600 21.22329 20.80698 16.37600 21.23002 20.75229 16.37600 
21.28471 20.75902 16.37600 21.27798 20.81371 17.81797 21.22329 20.80698 17.81797 
21.23002 20.75229 17.81797 21.28471 20.75902 17.81797 21.24924 20.82167 16.37600 
21.21533 20.77824 16.37600 21.25876 20.74433 16.37600 21.29267 20.78776 16.37600 
21.24924 20.82167 17.81797 21.21533 20.77824 17.81797 21.25876 20.74433 17.81797 
21.29267 20.78776 17.81797 21.27798 20.81371 17.09698 21.22329 20.80698 17.09698 
21.23002 20.75229 17.09698 21.28471 20.75902 17.09698 21.29267 20.78776 17.09698 
21.21533 20.77824 17.09698 21.24924 20.82167 17.09698 21.25876 20.74433 17.09698 
CELLS  3   75
24 0 1 2 3 4 5 6 7 8 9 10 11 12 13 14 15 16 17 18 19 20 21 22 23
24 24 25 26 27 28 29 30 31 32 33 34 35 36 37 38 39 40 41 42 43 44 45 46 47
24 48 49 50 51 52 53 54 55 56 57 58 59 60 61 62 63 64 65 66 67 68 69 70 71
CELL_TYPES  3 
33
33
33
CELL_DATA  3 
SCALARS average_vol_activity_bq_m3 double 1 
LOOKUP_TABLE default
87.21667
90.25774
82.91261
SCALARS total_activity_bq double 1 
LOOKUP_TABLE default
0.59971
0.62062
0.57012
SCALARS mc_error double 1 
LOOKUP_TABLE default
0.00000
0.00000
0.00000
