# vtk DataFile Version 2.0
DGS printing
ASCII
DATASET UNSTRUCTURED_GRID
POINTS  72  floats
21.28342 19.80854 20.81800 21.27954 19.75358 20.81800 21.22458 19.75746 20.81800 
21.22846 19.81242 20.81800 21.28342 19.80854 19.37603 21.27954 19.75358 19.37603 
21.22458 19.75746 19.37603 21.22846 19.81242 19.37603 21.29286 19.78026 20.81800 
21.25126 19.74414 20.81800 21.21514 19.78574 20.81800 21.25674 19.82186 20.81800 
21.29286 19.78026 19.37603 21.25126 19.74414 19.37603 21.21514 19.78574 19.37603 
21.25674 19.82186 19.37603 21.28342 19.80854 20.09702 21.27954 19.75358 20.09702 
21.22458 19.75746 20.09702 21.22846 19.81242 20.09702 21.25674 19.82186 20.09702 
21.25126 19.74414 20.09702 21.29286 19.78026 20.09702 21.21514 19.78574 20.09702 
21.27460 20.81607 17.93410 21.22093 20.80360 17.93410 21.23340 20.74993 17.93410 
21.28707 20.76240 17.93410 21.27460 20.81607 19.37607 21.22093 20.80360 19.37607 
21.23340 20.74993 19.37607 21.28707 20.76240 19.37607 21.24518 20.82095 17.93410 
21.21605 20.77418 17.93410 21.26282 20.74505 17.93410 21.29195 20.79182 17.93410 
21.24518 20.82095 19.37607 21.21605 20.77418 19.37607 21.26282 20.74505 19.37607 
21.29195 20.79182 19.37607 21.27460 20.81607 18.65508 21.22093 20.80360 18.65508 
21.23340 20.74993 18.65508 21.28707 20.76240 18.65508 21.29195 20.79182 18.65508 
21.21605 20.77418 18.65508 21.24518 20.82095 18.65508 21.26282 20.74505 18.65508 
21.29287 20.78567 16.37600 21.25133 20.82187 16.37600 21.21513 20.78033 16.37600 
21.25667 20.74413 16.37600 21.29287 20.78567 17.81797 21.25133 20.82187 17.81797 
21.21513 20.78033 17.81797 21.25667 20.74413 17.81797 21.27960 20.81237 16.37600 
21.22463 20.80860 16.37600 21.22840 20.75363 16.37600 21.28337 20.75740 16.37600 
21.27960 20.81237 17.81797 21.22463 20.80860 17.81797 21.22840 20.75363 17.81797 
21.28337 20.75740 17.81797 21.29287 20.78567 17.09698 21.25133 20.82187 17.09698 
21.21513 20.78033 17.09698 21.25667 20.74413 17.09698 21.28337 20.75740 17.09698 
21.22463 20.80860 17.09698 21.27960 20.81237 17.09698 21.22840 20.75363 17.09698 
CELLS  3   75
24 0 1 2 3 4 5 6 7 8 9 10 11 12 13 14 15 16 17 18 19 20 21 22 23
24 24 25 26 27 28 29 30 31 32 33 34 35 36 37 38 39 40 41 42 43 44 45 46 47
24 48 49 50 51 52 53 54 55 56 57 58 59 60 61 62 63 64 65 66 67 68 69 70 71
CELL_TYPES  3 
33
33
33
CELL_DATA  3 
SCALARS average_vol_activity_bq_m3 double 1 
LOOKUP_TABLE default
87.21667
90.25774
82.79168
SCALARS total_activity_bq double 1 
LOOKUP_TABLE default
0.59971
0.62062
0.56929
SCALARS mc_error double 1 
LOOKUP_TABLE default
0.00000
0.00000
0.00138
