# Region type : patch face1
# Faces  :    138
# Area   :    9.242436e-05
# Time        	sum(T)
0             	-1.750000e+06
29            	-1.750000e+06
